12358480
  -OEChem-03282214342D

 27 31  0     1  0  0  0  0  0999 V2000
    5.8555    1.7800    0.0000 Cl  0  0  0  0  0  0  0  0  0  0  0  0
    5.5470   -1.7800    0.0000 Cl  0  0  0  0  0  0  0  0  0  0  0  0
    7.0897   -0.2509    0.0000 Cl  0  0  0  0  0  0  0  0  0  0  0  0
    7.0897    0.3004    0.0000 Cl  0  0  0  0  0  0  0  0  0  0  0  0
    7.2979    1.1082    0.0000 Cl  0  0  0  0  0  0  0  0  0  0  0  0
    7.2979   -1.0587    0.0000 Cl  0  0  0  0  0  0  0  0  0  0  0  0
    2.0000    0.0247    0.0000 O   0  0  0  0  0  0  0  0  0  0  0  0
    4.5986    0.5247    0.0000 C   0  0  1  0  0  0  0  0  0  0  0  0
    4.5986   -0.4753    0.0000 C   0  0  2  0  0  0  0  0  0  0  0  0
    3.7326    1.0247    0.0000 C   0  0  2  0  0  0  0  0  0  0  0  0
    3.7326   -0.9753    0.0000 C   0  0  1  0  0  0  0  0  0  0  0  0
    2.8665    0.5247    0.0000 C   0  0  2  0  0  0  0  0  0  0  0  0
    2.8665   -0.4753    0.0000 C   0  0  1  0  0  0  0  0  0  0  0  0
    2.7447    1.1717    0.0000 C   0  0  0  0  0  0  0  0  0  0  0  0
    5.5448    0.8295    0.0000 C   0  0  1  0  0  0  0  0  0  0  0  0
    5.5448   -0.7800    0.0000 C   0  0  2  0  0  0  0  0  0  0  0  0
    6.1284    0.0247    0.0000 C   0  0  0  0  0  0  0  0  0  0  0  0
    6.4884    0.5211    0.0000 C   0  0  0  0  0  0  0  0  0  0  0  0
    6.4884   -0.4716    0.0000 C   0  0  0  0  0  0  0  0  0  0  0  0
    4.5986    1.3747    0.0000 H   0  0  0  0  0  0  0  0  0  0  0  0
    4.5986   -1.3253    0.0000 H   0  0  0  0  0  0  0  0  0  0  0  0
    3.7326    1.8747    0.0000 H   0  0  0  0  0  0  0  0  0  0  0  0
    3.7326   -1.8253    0.0000 H   0  0  0  0  0  0  0  0  0  0  0  0
    2.2839    0.7368    0.0000 H   0  0  0  0  0  0  0  0  0  0  0  0
    2.8665   -1.0953    0.0000 H   0  0  0  0  0  0  0  0  0  0  0  0
    2.7166    1.7911    0.0000 H   0  0  0  0  0  0  0  0  0  0  0  0
    2.1422    1.0254    0.0000 H   0  0  0  0  0  0  0  0  0  0  0  0
 15  1  1  6  0  0  0
 16  2  1  6  0  0  0
  3 17  1  0  0  0  0
  4 17  1  0  0  0  0
  5 18  1  0  0  0  0
  6 19  1  0  0  0  0
 12  7  1  6  0  0  0
 13  7  1  6  0  0  0
  8  9  1  0  0  0  0
  8 10  1  0  0  0  0
  8 15  1  0  0  0  0
  8 20  1  6  0  0  0
  9 11  1  0  0  0  0
  9 16  1  0  0  0  0
  9 21  1  6  0  0  0
 10 12  1  0  0  0  0
 10 14  1  0  0  0  0
 10 22  1  1  0  0  0
 11 13  1  0  0  0  0
 11 14  1  0  0  0  0
 11 23  1  6  0  0  0
 12 13  1  0  0  0  0
 12 24  1  0  0  0  0
 13 25  1  0  0  0  0
 14 26  1  0  0  0  0
 14 27  1  0  0  0  0
 15 17  1  0  0  0  0
 15 18  1  0  0  0  0
 16 17  1  0  0  0  0
 16 19  1  0  0  0  0
 18 19  2  0  0  0  0
M  END
> <PUBCHEM_COMPOUND_CID>
12358480

> <PUBCHEM_COMPOUND_CANONICALIZED>
1

> <PUBCHEM_CACTVS_COMPLEXITY>
516

> <PUBCHEM_CACTVS_HBOND_ACCEPTOR>
1

> <PUBCHEM_CACTVS_HBOND_DONOR>
0

> <PUBCHEM_CACTVS_ROTATABLE_BOND>
0

> <PUBCHEM_CACTVS_SUBSKEYS>
AAADccBwIAAHAAAAAAAAAAAAEgAAAYMGCAA0QIAAAAAYAAAAAAAAGgIAAAAADRaggIIAAAAABACAAABAAAAAAAAgAAAACEAAAggAAAIBAAACAAAEgAAIAAOAwPAOgAAAAAAAAABAAAYAADAAAZAATIACAA==

> <PUBCHEM_IUPAC_OPENEYE_NAME>
(1R,2R,3R,6S,7S,8S,9S,11R)-3,4,5,6,13,13-hexachloro-10-oxapentacyclo[6.3.1.13,6.02,7.09,11]tridec-4-ene

> <PUBCHEM_IUPAC_CAS_NAME>
(1R,2R,3R,6S,7S,8S,9S,11R)-3,4,5,6,13,13-hexachloro-10-oxapentacyclo[6.3.1.13,6.02,7.09,11]tridec-4-ene

> <PUBCHEM_IUPAC_NAME_MARKUP>
(1<I>R</I>,2<I>R</I>,3<I>R</I>,6<I>S</I>,7<I>S</I>,8<I>S</I>,9<I>S</I>,11<I>R</I>)-3,4,5,6,13,13-hexachloro-10-oxapentacyclo[6.3.1.1<SUP>3,6</SUP>.0<SUP>2,7</SUP>.0<SUP>9,11</SUP>]tridec-4-ene

> <PUBCHEM_IUPAC_NAME>
(1R,2R,3R,6S,7S,8S,9S,11R)-3,4,5,6,13,13-hexachloro-10-oxapentacyclo[6.3.1.13,6.02,7.09,11]tridec-4-ene

> <PUBCHEM_IUPAC_SYSTEMATIC_NAME>
(1R,2R,3R,6S,7S,8S,9S,11R)-3,4,5,6,13,13-hexakis(chloranyl)-10-oxapentacyclo[6.3.1.13,6.02,7.09,11]tridec-4-ene

> <PUBCHEM_IUPAC_TRADITIONAL_NAME>
(1R,2R,3R,6S,7S,8S,9S,11R)-3,4,5,6,13,13-hexachloro-10-oxapentacyclo[6.3.1.13,6.02,7.09,11]tridec-4-ene

> <PUBCHEM_IUPAC_INCHI>
InChI=1S/C12H8Cl6O/c13-8-9(14)11(16)5-3-1-2(6-7(3)19-6)4(5)10(8,15)12(11,17)18/h2-7H,1H2/t2-,3+,4-,5+,6-,7+,10-,11+

> <PUBCHEM_IUPAC_INCHIKEY>
DFBKLUNHFCTMDC-GKRDHZSOSA-N

> <PUBCHEM_XLOGP3_AA>
3.7

> <PUBCHEM_EXACT_MASS>
379.867681

> <PUBCHEM_MOLECULAR_FORMULA>
C12H8Cl6O

> <PUBCHEM_MOLECULAR_WEIGHT>
380.9

> <PUBCHEM_OPENEYE_CAN_SMILES>
C1C2C3C(C1C4C2O4)C5(C(=C(C3(C5(Cl)Cl)Cl)Cl)Cl)Cl

> <PUBCHEM_OPENEYE_ISO_SMILES>
C1[C@@H]2[C@@H]3[C@H]([C@H]1[C@H]4[C@@H]2O4)[C@@]5(C(=C([C@]3(C5(Cl)Cl)Cl)Cl)Cl)Cl

> <PUBCHEM_CACTVS_TPSA>
12.5

> <PUBCHEM_MONOISOTOPIC_WEIGHT>
377.870631

> <PUBCHEM_TOTAL_CHARGE>
0

> <PUBCHEM_HEAVY_ATOM_COUNT>
19

> <PUBCHEM_ATOM_DEF_STEREO_COUNT>
8

> <PUBCHEM_ATOM_UDEF_STEREO_COUNT>
0

> <PUBCHEM_BOND_DEF_STEREO_COUNT>
0

> <PUBCHEM_BOND_UDEF_STEREO_COUNT>
0

> <PUBCHEM_ISOTOPIC_ATOM_COUNT>
0

> <PUBCHEM_COMPONENT_COUNT>
1

> <PUBCHEM_CACTVS_TAUTO_COUNT>
-1

> <PUBCHEM_COORDINATE_TYPE>
1
5
255

> <PUBCHEM_BONDANNOTATIONS>
15  1  6
10  22  5
11  23  6
16  2  6
12  7  6
13  7  6
8  20  6
9  21  6

$$$$
