9828343
  -OEChem-03282215462D

 82 86  0     1  0  0  0  0  0999 V2000
    8.4692   -1.0374    0.0000 O   0  0  0  0  0  0  0  0  0  0  0  0
    8.4692   -2.0374    0.0000 O   0  0  0  0  0  0  0  0  0  0  0  0
    5.8711    0.4626    0.0000 O   0  0  0  0  0  0  0  0  0  0  0  0
    4.6731    4.5374    0.0000 O   0  0  0  0  0  0  0  0  0  0  0  0
    4.2390    2.3198    0.0000 O   0  0  0  0  0  0  0  0  0  0  0  0
    2.5587    3.7504    0.0000 O   0  0  0  0  0  0  0  0  0  0  0  0
    6.8711    1.4626    0.0000 O   0  0  0  0  0  0  0  0  0  0  0  0
    7.6031   -1.5374    0.0000 C   0  0  2  0  0  0  0  0  0  0  0  0
    6.7371   -1.0374    0.0000 C   0  0  0  0  0  0  0  0  0  0  0  0
    5.0050    2.9626    0.0000 C   0  0  1  0  0  0  0  0  0  0  0  0
    6.7371   -0.0374    0.0000 C   0  0  2  0  0  0  0  0  0  0  0  0
    6.7371   -2.0374    0.0000 C   0  0  0  0  0  0  0  0  0  0  0  0
    4.2680    3.6296    0.0000 C   0  0  1  0  0  0  0  0  0  0  0  0
    7.6031   -3.5374    0.0000 C   0  0  1  0  0  0  0  0  0  0  0  0
    6.7371   -3.0374    0.0000 C   0  0  0  0  0  0  0  0  0  0  0  0
    5.0050    1.9626    0.0000 C   0  0  1  0  0  0  0  0  0  0  0  0
    7.6031    0.4626    0.0000 C   0  0  0  0  0  0  0  0  0  0  0  0
    8.4692   -0.0374    0.0000 C   0  0  1  0  0  0  0  0  0  0  0  0
    8.4692   -3.0374    0.0000 C   0  0  1  0  0  0  0  0  0  0  0  0
    3.3848    3.1869    0.0000 C   0  0  1  0  0  0  0  0  0  0  0  0
    5.8711    3.4626    0.0000 C   0  0  0  0  0  0  0  0  0  0  0  0
    4.0831    1.6073    0.0000 C   0  0  0  0  0  0  0  0  0  0  0  0
    5.8711    1.4626    0.0000 C   0  0  0  0  0  0  0  0  0  0  0  0
    3.2948    2.2029    0.0000 C   0  0  0  0  0  0  0  0  0  0  0  0
    5.6619    4.4344    0.0000 C   0  0  0  0  0  0  0  0  0  0  0  0
    9.3352    0.4626    0.0000 C   0  0  0  0  0  0  0  0  0  0  0  0
    7.6031   -4.5374    0.0000 C   0  0  0  0  0  0  0  0  0  0  0  0
    9.3352   -3.5374    0.0000 C   0  0  0  0  0  0  0  0  0  0  0  0
    6.7371    2.9626    0.0000 C   0  0  0  0  0  0  0  0  0  0  0  0
    2.3802    1.7986    0.0000 C   0  0  0  0  0  0  0  0  0  0  0  0
    9.3352    1.4626    0.0000 C   0  0  0  0  0  0  0  0  0  0  0  0
   10.2012    1.9626    0.0000 C   0  0  0  0  0  0  0  0  0  0  0  0
    7.6031    3.4626    0.0000 C   0  0  0  0  0  0  0  0  0  0  0  0
   10.2012    2.9626    0.0000 C   0  0  0  0  0  0  0  0  0  0  0  0
    9.3352    3.4626    0.0000 C   0  0  2  0  0  0  0  0  0  0  0  0
    8.4692    2.9626    0.0000 C   0  0  0  0  0  0  0  0  0  0  0  0
   11.0672    1.4626    0.0000 C   0  0  0  0  0  0  0  0  0  0  0  0
    9.3352    4.4626    0.0000 C   0  0  0  0  0  0  0  0  0  0  0  0
    6.1265   -0.9298    0.0000 H   0  0  0  0  0  0  0  0  0  0  0  0
    6.5250   -1.6200    0.0000 H   0  0  0  0  0  0  0  0  0  0  0  0
    6.0010   -0.4624    0.0000 H   0  0  0  0  0  0  0  0  0  0  0  0
    6.5250   -1.4548    0.0000 H   0  0  0  0  0  0  0  0  0  0  0  0
    6.1265   -2.1451    0.0000 H   0  0  0  0  0  0  0  0  0  0  0  0
    3.6536    4.2170    0.0000 H   0  0  0  0  0  0  0  0  0  0  0  0
    8.1401   -3.8474    0.0000 H   0  0  0  0  0  0  0  0  0  0  0  0
    6.1265   -2.9298    0.0000 H   0  0  0  0  0  0  0  0  0  0  0  0
    6.5250   -3.6200    0.0000 H   0  0  0  0  0  0  0  0  0  0  0  0
    5.0050    1.1126    0.0000 H   0  0  0  0  0  0  0  0  0  0  0  0
    8.0016    0.9375    0.0000 H   0  0  0  0  0  0  0  0  0  0  0  0
    7.2046    0.9375    0.0000 H   0  0  0  0  0  0  0  0  0  0  0  0
    9.2053   -0.4624    0.0000 H   0  0  0  0  0  0  0  0  0  0  0  0
    9.0061   -2.7274    0.0000 H   0  0  0  0  0  0  0  0  0  0  0  0
    3.4263    3.8055    0.0000 H   0  0  0  0  0  0  0  0  0  0  0  0
    3.9968    0.9933    0.0000 H   0  0  0  0  0  0  0  0  0  0  0  0
    6.2783    4.5004    0.0000 H   0  0  0  0  0  0  0  0  0  0  0  0
    5.6610    5.0544    0.0000 H   0  0  0  0  0  0  0  0  0  0  0  0
    9.5472   -0.1200    0.0000 H   0  0  0  0  0  0  0  0  0  0  0  0
    9.9458    0.5702    0.0000 H   0  0  0  0  0  0  0  0  0  0  0  0
    6.9831   -4.5374    0.0000 H   0  0  0  0  0  0  0  0  0  0  0  0
    7.6031   -5.1574    0.0000 H   0  0  0  0  0  0  0  0  0  0  0  0
    8.2231   -4.5374    0.0000 H   0  0  0  0  0  0  0  0  0  0  0  0
    9.0252   -4.0744    0.0000 H   0  0  0  0  0  0  0  0  0  0  0  0
    9.8721   -3.8474    0.0000 H   0  0  0  0  0  0  0  0  0  0  0  0
    9.6452   -3.0005    0.0000 H   0  0  0  0  0  0  0  0  0  0  0  0
    3.8405    2.7947    0.0000 H   0  0  0  0  0  0  0  0  0  0  0  0
    7.0472    2.4257    0.0000 H   0  0  0  0  0  0  0  0  0  0  0  0
    2.1295    2.3656    0.0000 H   0  0  0  0  0  0  0  0  0  0  0  0
    1.8131    1.5479    0.0000 H   0  0  0  0  0  0  0  0  0  0  0  0
    2.6309    1.2315    0.0000 H   0  0  0  0  0  0  0  0  0  0  0  0
    8.7982    1.7726    0.0000 H   0  0  0  0  0  0  0  0  0  0  0  0
    2.0000    3.4815    0.0000 H   0  0  0  0  0  0  0  0  0  0  0  0
    7.6031    4.0826    0.0000 H   0  0  0  0  0  0  0  0  0  0  0  0
   10.8118    2.8549    0.0000 H   0  0  0  0  0  0  0  0  0  0  0  0
   10.4132    3.5452    0.0000 H   0  0  0  0  0  0  0  0  0  0  0  0
    9.8721    3.7726    0.0000 H   0  0  0  0  0  0  0  0  0  0  0  0
    8.4692    2.3426    0.0000 H   0  0  0  0  0  0  0  0  0  0  0  0
   10.7572    0.9256    0.0000 H   0  0  0  0  0  0  0  0  0  0  0  0
   11.6042    1.1526    0.0000 H   0  0  0  0  0  0  0  0  0  0  0  0
   11.3772    1.9995    0.0000 H   0  0  0  0  0  0  0  0  0  0  0  0
    9.9552    4.4626    0.0000 H   0  0  0  0  0  0  0  0  0  0  0  0
    9.3352    5.0826    0.0000 H   0  0  0  0  0  0  0  0  0  0  0  0
    8.7152    4.4626    0.0000 H   0  0  0  0  0  0  0  0  0  0  0  0
  1  8  1  0  0  0  0
  1 18  1  0  0  0  0
  8  2  1  6  0  0  0
  2 19  1  0  0  0  0
  3 11  1  0  0  0  0
  3 23  1  0  0  0  0
  4 13  1  0  0  0  0
  4 25  1  0  0  0  0
 10  5  1  6  0  0  0
  5 65  1  0  0  0  0
 20  6  1  1  0  0  0
  6 71  1  0  0  0  0
  7 23  2  0  0  0  0
  8  9  1  0  0  0  0
  8 12  1  0  0  0  0
  9 11  1  0  0  0  0
  9 39  1  0  0  0  0
  9 40  1  0  0  0  0
 10 13  1  0  0  0  0
 10 16  1  0  0  0  0
 10 21  1  0  0  0  0
 11 17  1  0  0  0  0
 11 41  1  6  0  0  0
 12 15  1  0  0  0  0
 12 42  1  0  0  0  0
 12 43  1  0  0  0  0
 13 20  1  0  0  0  0
 13 44  1  6  0  0  0
 14 15  1  0  0  0  0
 14 19  1  0  0  0  0
 14 27  1  1  0  0  0
 14 45  1  0  0  0  0
 15 46  1  0  0  0  0
 15 47  1  0  0  0  0
 16 22  1  0  0  0  0
 16 23  1  0  0  0  0
 16 48  1  1  0  0  0
 17 18  1  0  0  0  0
 17 49  1  0  0  0  0
 17 50  1  0  0  0  0
 18 26  1  0  0  0  0
 18 51  1  6  0  0  0
 19 28  1  6  0  0  0
 19 52  1  0  0  0  0
 20 24  1  0  0  0  0
 20 53  1  0  0  0  0
 21 25  1  0  0  0  0
 21 29  2  0  0  0  0
 22 24  2  0  0  0  0
 22 54  1  0  0  0  0
 24 30  1  0  0  0  0
 25 55  1  0  0  0  0
 25 56  1  0  0  0  0
 26 31  1  0  0  0  0
 26 57  1  0  0  0  0
 26 58  1  0  0  0  0
 27 59  1  0  0  0  0
 27 60  1  0  0  0  0
 27 61  1  0  0  0  0
 28 62  1  0  0  0  0
 28 63  1  0  0  0  0
 28 64  1  0  0  0  0
 29 33  1  0  0  0  0
 29 66  1  0  0  0  0
 30 67  1  0  0  0  0
 30 68  1  0  0  0  0
 30 69  1  0  0  0  0
 31 32  2  0  0  0  0
 31 70  1  0  0  0  0
 32 34  1  0  0  0  0
 32 37  1  0  0  0  0
 33 36  2  0  0  0  0
 33 72  1  0  0  0  0
 34 35  1  0  0  0  0
 34 73  1  0  0  0  0
 34 74  1  0  0  0  0
 35 36  1  0  0  0  0
 35 38  1  6  0  0  0
 35 75  1  0  0  0  0
 36 76  1  0  0  0  0
 37 77  1  0  0  0  0
 37 78  1  0  0  0  0
 37 79  1  0  0  0  0
 38 80  1  0  0  0  0
 38 81  1  0  0  0  0
 38 82  1  0  0  0  0
M  END
> <PUBCHEM_COMPOUND_CID>
9828343

> <PUBCHEM_COMPOUND_CANONICALIZED>
1

> <PUBCHEM_CACTVS_COMPLEXITY>
1040

> <PUBCHEM_CACTVS_HBOND_ACCEPTOR>
7

> <PUBCHEM_CACTVS_HBOND_DONOR>
2

> <PUBCHEM_CACTVS_ROTATABLE_BOND>
0

> <PUBCHEM_CACTVS_SUBSKEYS>
AAADcfB4OAAAAAAAAAAAAAAAAAAAASAAAAAkSIAAAAAAAEAAAAAAGgAACAAADVSggAICCAAABgCIAiDSCAAAAAAgAAAICAEAAAgZFBYAIQAiUAAF4AAPsAPK7OzOgAAAAAAAAAAAAAAAAAAAAAAAAAAAAA==

> <PUBCHEM_IUPAC_OPENEYE_NAME>
(1R,4S,5'S,6R,6'R,8R,10E,13R,14E,16E,20R,21R,24S)-21,24-dihydroxy-5',6',11,13,22-pentamethyl-spiro[3,7,19-trioxatetracyclo[15.6.1.14,8.020,24]pentacosa-10,14,16,22-tetraene-6,2'-tetrahydropyran]-2-one

> <PUBCHEM_IUPAC_CAS_NAME>
(1R,4S,5'S,6R,6'R,8R,10E,13R,14E,16E,20R,21R,24S)-21,24-dihydroxy-5',6',11,13,22-pentamethyl-2-spiro[3,7,19-trioxatetracyclo[15.6.1.14,8.020,24]pentacosa-10,14,16,22-tetraene-6,2'-oxane]one

> <PUBCHEM_IUPAC_NAME_MARKUP>
(1<I>R</I>,4<I>S</I>,5&apos;<I>S</I>,6<I>R</I>,6&apos;<I>R</I>,8<I>R</I>,10<I>E</I>,13<I>R</I>,14<I>E</I>,16<I>E</I>,20<I>R</I>,21<I>R</I>,24<I>S</I>)-21,24-dihydroxy-5&apos;,6&apos;,11,13,22-pentamethylspiro[3,7,19-trioxatetracyclo[15.6.1.1<SUP>4,8</SUP>.0<SUP>20,24</SUP>]pentacosa-10,14,16,22-tetraene-6,2&apos;-oxane]-2-one

> <PUBCHEM_IUPAC_NAME>
(1R,4S,5'S,6R,6'R,8R,10E,13R,14E,16E,20R,21R,24S)-21,24-dihydroxy-5',6',11,13,22-pentamethylspiro[3,7,19-trioxatetracyclo[15.6.1.14,8.020,24]pentacosa-10,14,16,22-tetraene-6,2'-oxane]-2-one

> <PUBCHEM_IUPAC_SYSTEMATIC_NAME>
(1R,4S,5'S,6R,6'R,8R,10E,13R,14E,16E,20R,21R,24S)-5',6',11,13,22-pentamethyl-21,24-bis(oxidanyl)spiro[3,7,19-trioxatetracyclo[15.6.1.14,8.020,24]pentacosa-10,14,16,22-tetraene-6,2'-oxane]-2-one

> <PUBCHEM_IUPAC_TRADITIONAL_NAME>
(1R,4S,5'S,6R,6'R,8R,10E,13R,14E,16E,20R,21R,24S)-21,24-dihydroxy-5',6',11,13,22-pentamethyl-spiro[3,7,19-trioxatetracyclo[15.6.1.14,8.020,24]pentacosa-10,14,16,22-tetraene-6,2'-tetrahydropyran]-2-one

> <PUBCHEM_IUPAC_INCHI>
InChI=1S/C31H44O7/c1-18-7-6-8-23-17-35-28-27(32)21(4)14-26(31(23,28)34)29(33)36-25-15-24(10-9-19(2)13-18)38-30(16-25)12-11-20(3)22(5)37-30/h6-9,14,18,20,22,24-28,32,34H,10-13,15-17H2,1-5H3/b7-6+,19-9+,23-8+/t18-,20-,22+,24+,25-,26-,27+,28+,30-,31+/m0/s1

> <PUBCHEM_IUPAC_INCHIKEY>
ZLBGSRMUSVULIE-GSMJGMFJSA-N

> <PUBCHEM_XLOGP3_AA>
3.1

> <PUBCHEM_EXACT_MASS>
528.30870374

> <PUBCHEM_MOLECULAR_FORMULA>
C31H44O7

> <PUBCHEM_MOLECULAR_WEIGHT>
528.7

> <PUBCHEM_OPENEYE_CAN_SMILES>
CC1CCC2(CC3CC(O2)CC=C(CC(C=CC=C4COC5C4(C(C=C(C5O)C)C(=O)O3)O)C)C)OC1C

> <PUBCHEM_OPENEYE_ISO_SMILES>
C[C@H]1CC[C@]2(C[C@@H]3C[C@H](O2)C/C=C(/C[C@H](/C=C/C=C/4\CO[C@H]5[C@@]4([C@@H](C=C([C@H]5O)C)C(=O)O3)O)C)\C)O[C@@H]1C

> <PUBCHEM_CACTVS_TPSA>
94.4

> <PUBCHEM_MONOISOTOPIC_WEIGHT>
528.30870374

> <PUBCHEM_TOTAL_CHARGE>
0

> <PUBCHEM_HEAVY_ATOM_COUNT>
38

> <PUBCHEM_ATOM_DEF_STEREO_COUNT>
10

> <PUBCHEM_ATOM_UDEF_STEREO_COUNT>
0

> <PUBCHEM_BOND_DEF_STEREO_COUNT>
3

> <PUBCHEM_BOND_UDEF_STEREO_COUNT>
0

> <PUBCHEM_ISOTOPIC_ATOM_COUNT>
0

> <PUBCHEM_COMPONENT_COUNT>
1

> <PUBCHEM_CACTVS_TAUTO_COUNT>
1

> <PUBCHEM_COORDINATE_TYPE>
1
5
255

> <PUBCHEM_BONDANNOTATIONS>
11  41  6
13  44  6
14  27  5
16  48  5
18  51  6
19  28  6
8  2  6
35  38  6
10  5  6
20  6  5

$$$$
