5284389
  -OEChem-03282215422D

 50 50  0     1  0  0  0  0  0999 V2000
    8.9282    0.5443    0.0000 O   0  0  0  0  0  0  0  0  0  0  0  0
   11.1211   -2.0691    0.0000 O   0  5  0  0  0  0  0  0  0  0  0  0
   11.4218   -0.3633    0.0000 O   0  0  0  0  0  0  0  0  0  0  0  0
    8.0622   -3.9557    0.0000 O   0  5  0  0  0  0  0  0  0  0  0  0
    9.7942   -3.9557    0.0000 O   0  0  0  0  0  0  0  0  0  0  0  0
   10.2550    1.6576    0.0000 O   0  0  0  0  0  0  0  0  0  0  0  0
   10.7790   -1.1294    0.0000 N   0  3  0  0  0  0  0  0  0  0  0  0
    8.9282   -3.4557    0.0000 N   0  3  0  0  0  0  0  0  0  0  0  0
    7.1962   -0.4557    0.0000 C   0  0  3  0  0  0  0  0  0  0  0  0
    6.3301   -0.9557    0.0000 C   0  0  0  0  0  0  0  0  0  0  0  0
    5.4641   -0.4557    0.0000 C   0  0  0  0  0  0  0  0  0  0  0  0
    4.5981   -0.9557    0.0000 C   0  0  0  0  0  0  0  0  0  0  0  0
    8.0622   -0.9557    0.0000 C   0  0  0  0  0  0  0  0  0  0  0  0
    3.7320   -0.4557    0.0000 C   0  0  0  0  0  0  0  0  0  0  0  0
    7.1962    0.5443    0.0000 C   0  0  0  0  0  0  0  0  0  0  0  0
    2.8660   -0.9557    0.0000 C   0  0  0  0  0  0  0  0  0  0  0  0
    8.9282   -0.4557    0.0000 C   0  0  0  0  0  0  0  0  0  0  0  0
    8.0622   -1.9557    0.0000 C   0  0  0  0  0  0  0  0  0  0  0  0
    9.7942   -0.9557    0.0000 C   0  0  0  0  0  0  0  0  0  0  0  0
    8.9282   -2.4557    0.0000 C   0  0  0  0  0  0  0  0  0  0  0  0
    9.7942   -1.9557    0.0000 C   0  0  0  0  0  0  0  0  0  0  0  0
    2.0000   -0.4557    0.0000 C   0  0  0  0  0  0  0  0  0  0  0  0
    9.2702    1.4840    0.0000 C   0  0  0  0  0  0  0  0  0  0  0  0
    8.6274    2.2500    0.0000 C   0  0  0  0  0  0  0  0  0  0  0  0
    8.9695    3.1897    0.0000 C   0  0  0  0  0  0  0  0  0  0  0  0
    8.3267    3.9557    0.0000 C   0  0  0  0  0  0  0  0  0  0  0  0
    6.6592   -0.1457    0.0000 H   0  0  0  0  0  0  0  0  0  0  0  0
    5.9316   -1.4307    0.0000 H   0  0  0  0  0  0  0  0  0  0  0  0
    6.7287   -1.4307    0.0000 H   0  0  0  0  0  0  0  0  0  0  0  0
    5.8626    0.0192    0.0000 H   0  0  0  0  0  0  0  0  0  0  0  0
    5.0656    0.0192    0.0000 H   0  0  0  0  0  0  0  0  0  0  0  0
    4.1996   -1.4307    0.0000 H   0  0  0  0  0  0  0  0  0  0  0  0
    4.9966   -1.4307    0.0000 H   0  0  0  0  0  0  0  0  0  0  0  0
    4.1306    0.0192    0.0000 H   0  0  0  0  0  0  0  0  0  0  0  0
    3.3335    0.0192    0.0000 H   0  0  0  0  0  0  0  0  0  0  0  0
    7.8162    0.5443    0.0000 H   0  0  0  0  0  0  0  0  0  0  0  0
    7.1962    1.1643    0.0000 H   0  0  0  0  0  0  0  0  0  0  0  0
    6.5762    0.5443    0.0000 H   0  0  0  0  0  0  0  0  0  0  0  0
    2.4675   -1.4307    0.0000 H   0  0  0  0  0  0  0  0  0  0  0  0
    3.2646   -1.4307    0.0000 H   0  0  0  0  0  0  0  0  0  0  0  0
    7.5252   -2.2657    0.0000 H   0  0  0  0  0  0  0  0  0  0  0  0
   10.3312   -2.2657    0.0000 H   0  0  0  0  0  0  0  0  0  0  0  0
    2.3100    0.0812    0.0000 H   0  0  0  0  0  0  0  0  0  0  0  0
    1.4631   -0.1457    0.0000 H   0  0  0  0  0  0  0  0  0  0  0  0
    1.6900   -0.9927    0.0000 H   0  0  0  0  0  0  0  0  0  0  0  0
    8.0169    2.1423    0.0000 H   0  0  0  0  0  0  0  0  0  0  0  0
    9.5800    3.2974    0.0000 H   0  0  0  0  0  0  0  0  0  0  0  0
    8.8016    4.3543    0.0000 H   0  0  0  0  0  0  0  0  0  0  0  0
    7.9281    4.4307    0.0000 H   0  0  0  0  0  0  0  0  0  0  0  0
    7.8517    3.5572    0.0000 H   0  0  0  0  0  0  0  0  0  0  0  0
  1 17  1  0  0  0  0
  1 23  1  0  0  0  0
  2  7  1  0  0  0  0
  3  7  2  0  0  0  0
  4  8  1  0  0  0  0
  5  8  2  0  0  0  0
  6 23  2  0  0  0  0
  7 19  1  0  0  0  0
  8 20  1  0  0  0  0
  9 10  1  0  0  0  0
  9 13  1  0  0  0  0
  9 15  1  0  0  0  0
  9 27  1  0  0  0  0
 10 11  1  0  0  0  0
 10 28  1  0  0  0  0
 10 29  1  0  0  0  0
 11 12  1  0  0  0  0
 11 30  1  0  0  0  0
 11 31  1  0  0  0  0
 12 14  1  0  0  0  0
 12 32  1  0  0  0  0
 12 33  1  0  0  0  0
 13 17  2  0  0  0  0
 13 18  1  0  0  0  0
 14 16  1  0  0  0  0
 14 34  1  0  0  0  0
 14 35  1  0  0  0  0
 15 36  1  0  0  0  0
 15 37  1  0  0  0  0
 15 38  1  0  0  0  0
 16 22  1  0  0  0  0
 16 39  1  0  0  0  0
 16 40  1  0  0  0  0
 17 19  1  0  0  0  0
 18 20  2  0  0  0  0
 18 41  1  0  0  0  0
 19 21  2  0  0  0  0
 20 21  1  0  0  0  0
 21 42  1  0  0  0  0
 22 43  1  0  0  0  0
 22 44  1  0  0  0  0
 22 45  1  0  0  0  0
 23 24  1  0  0  0  0
 24 25  2  0  0  0  0
 24 46  1  0  0  0  0
 25 26  1  0  0  0  0
 25 47  1  0  0  0  0
 26 48  1  0  0  0  0
 26 49  1  0  0  0  0
 26 50  1  0  0  0  0
M  CHG  4   2  -1   4  -1   7   1   8   1
M  END
> <PUBCHEM_COMPOUND_CID>
5284389

> <PUBCHEM_COMPOUND_CANONICALIZED>
1

> <PUBCHEM_CACTVS_COMPLEXITY>
511

> <PUBCHEM_CACTVS_HBOND_ACCEPTOR>
6

> <PUBCHEM_CACTVS_HBOND_DONOR>
0

> <PUBCHEM_CACTVS_ROTATABLE_BOND>
9

> <PUBCHEM_CACTVS_SUBSKEYS>
AAADceB7OAAAAAAAAAAAAAAAAAAAAAAAAAAwAAAAAAAAAAABAAAAHgAEAAAADQyBmAAyzoAQRACJAiTSSwCCCAAgIgAoiAAFbMoOJiKE8duDOiDkwFEI6YewwOAOgEAAQAQIEAAAgACACBAgAAAAAAAAAA==

> <PUBCHEM_IUPAC_OPENEYE_NAME>
[2-(1-methylheptyl)-4,6-dinitro-phenyl] (E)-but-2-enoate

> <PUBCHEM_IUPAC_CAS_NAME>
(E)-2-butenoic acid (2,4-dinitro-6-octan-2-ylphenyl) ester

> <PUBCHEM_IUPAC_NAME_MARKUP>
(2,4-dinitro-6-octan-2-ylphenyl) (<I>E</I>)-but-2-enoate

> <PUBCHEM_IUPAC_NAME>
(2,4-dinitro-6-octan-2-ylphenyl) (E)-but-2-enoate

> <PUBCHEM_IUPAC_SYSTEMATIC_NAME>
(2,4-dinitro-6-octan-2-yl-phenyl) (E)-but-2-enoate

> <PUBCHEM_IUPAC_TRADITIONAL_NAME>
(E)-but-2-enoic acid [2-(1-methylheptyl)-4,6-dinitro-phenyl] ester

> <PUBCHEM_IUPAC_INCHI>
InChI=1S/C18H24N2O6/c1-4-6-7-8-10-13(3)15-11-14(19(22)23)12-16(20(24)25)18(15)26-17(21)9-5-2/h5,9,11-13H,4,6-8,10H2,1-3H3/b9-5+

> <PUBCHEM_IUPAC_INCHIKEY>
NIOPZPCMRQGZCE-WEVVVXLNSA-N

> <PUBCHEM_XLOGP3_AA>
6

> <PUBCHEM_EXACT_MASS>
364.16343649

> <PUBCHEM_MOLECULAR_FORMULA>
C18H24N2O6

> <PUBCHEM_MOLECULAR_WEIGHT>
364.4

> <PUBCHEM_OPENEYE_CAN_SMILES>
CCCCCCC(C)C1=C(C(=CC(=C1)[N+](=O)[O-])[N+](=O)[O-])OC(=O)C=CC

> <PUBCHEM_OPENEYE_ISO_SMILES>
CCCCCCC(C)C1=C(C(=CC(=C1)[N+](=O)[O-])[N+](=O)[O-])OC(=O)/C=C/C

> <PUBCHEM_CACTVS_TPSA>
118

> <PUBCHEM_MONOISOTOPIC_WEIGHT>
364.16343649

> <PUBCHEM_TOTAL_CHARGE>
0

> <PUBCHEM_HEAVY_ATOM_COUNT>
26

> <PUBCHEM_ATOM_DEF_STEREO_COUNT>
0

> <PUBCHEM_ATOM_UDEF_STEREO_COUNT>
1

> <PUBCHEM_BOND_DEF_STEREO_COUNT>
1

> <PUBCHEM_BOND_UDEF_STEREO_COUNT>
0

> <PUBCHEM_ISOTOPIC_ATOM_COUNT>
0

> <PUBCHEM_COMPONENT_COUNT>
1

> <PUBCHEM_CACTVS_TAUTO_COUNT>
1

> <PUBCHEM_COORDINATE_TYPE>
1
5
255

> <PUBCHEM_BONDANNOTATIONS>
13  17  8
13  18  8
17  19  8
18  20  8
19  21  8
20  21  8
9  15  3

$$$$
