13307026
  -OEChem-03282216292D

 34 30  0     0  0  0  0  0  0999 V2000
    2.8128    0.3164    0.0000 Zn  0  2  0  0  0  0  0  0  0  0  0  0
    2.8128    5.8927    0.0000 Mn  0  2  0  0  0  0  0  0  0  0  0  0
    3.4556    1.0825    0.0000 S   0  5  0  0  0  0  0  0  0  0  0  0
    1.8280    0.1428    0.0000 S   0  5  0  0  0  0  0  0  0  0  0  0
    1.8280    5.7190    0.0000 S   0  5  0  0  0  0  0  0  0  0  0  0
    3.4556    6.6587    0.0000 S   0  5  0  0  0  0  0  0  0  0  0  0
    4.3953    2.4245    0.0000 S   0  0  0  0  0  0  0  0  0  0  0  0
    0.1960    0.0000    0.0000 S   0  0  0  0  0  0  0  0  0  0  0  0
    0.1960    5.5762    0.0000 S   0  0  0  0  0  0  0  0  0  0  0  0
    4.3953    8.0007    0.0000 S   0  0  0  0  0  0  0  0  0  0  0  0
    2.8128    2.8485    0.0000 N   0  0  0  0  0  0  0  0  0  0  0  0
    0.6200    1.5825    0.0000 N   0  0  0  0  0  0  0  0  0  0  0  0
    0.6200    7.1587    0.0000 N   0  0  0  0  0  0  0  0  0  0  0  0
    2.8128    8.4248    0.0000 N   0  0  0  0  0  0  0  0  0  0  0  0
    1.8280    3.0222    0.0000 C   0  0  0  0  0  0  0  0  0  0  0  0
    0.9620    2.5222    0.0000 C   0  0  0  0  0  0  0  0  0  0  0  0
    0.9620    8.0984    0.0000 C   0  0  0  0  0  0  0  0  0  0  0  0
    1.8280    8.5984    0.0000 C   0  0  0  0  0  0  0  0  0  0  0  0
    3.4556    2.0825    0.0000 C   0  0  0  0  0  0  0  0  0  0  0  0
    0.9620    0.6428    0.0000 C   0  0  0  0  0  0  0  0  0  0  0  0
    0.9620    6.2190    0.0000 C   0  0  0  0  0  0  0  0  0  0  0  0
    3.4556    7.6587    0.0000 C   0  0  0  0  0  0  0  0  0  0  0  0
    2.1063    3.5762    0.0000 H   0  0  0  0  0  0  0  0  0  0  0  0
    1.3771    3.4476    0.0000 H   0  0  0  0  0  0  0  0  0  0  0  0
    0.8190    3.1255    0.0000 H   0  0  0  0  0  0  0  0  0  0  0  0
    0.3431    2.5582    0.0000 H   0  0  0  0  0  0  0  0  0  0  0  0
    0.8190    8.7017    0.0000 H   0  0  0  0  0  0  0  0  0  0  0  0
    0.3431    8.1344    0.0000 H   0  0  0  0  0  0  0  0  0  0  0  0
    2.1063    9.1524    0.0000 H   0  0  0  0  0  0  0  0  0  0  0  0
    1.3771    9.0239    0.0000 H   0  0  0  0  0  0  0  0  0  0  0  0
    3.1228    3.3855    0.0000 H   0  0  0  0  0  0  0  0  0  0  0  0
    0.0000    1.5825    0.0000 H   0  0  0  0  0  0  0  0  0  0  0  0
    0.0000    7.1587    0.0000 H   0  0  0  0  0  0  0  0  0  0  0  0
    3.1228    8.9617    0.0000 H   0  0  0  0  0  0  0  0  0  0  0  0
  3 19  1  0  0  0  0
  4 20  1  0  0  0  0
  5 21  1  0  0  0  0
  6 22  1  0  0  0  0
  7 19  2  0  0  0  0
  8 20  2  0  0  0  0
  9 21  2  0  0  0  0
 10 22  2  0  0  0  0
 11 15  1  0  0  0  0
 11 19  1  0  0  0  0
 11 31  1  0  0  0  0
 12 16  1  0  0  0  0
 12 20  1  0  0  0  0
 12 32  1  0  0  0  0
 13 17  1  0  0  0  0
 13 21  1  0  0  0  0
 13 33  1  0  0  0  0
 14 18  1  0  0  0  0
 14 22  1  0  0  0  0
 14 34  1  0  0  0  0
 15 16  1  0  0  0  0
 15 23  1  0  0  0  0
 15 24  1  0  0  0  0
 16 25  1  0  0  0  0
 16 26  1  0  0  0  0
 17 18  1  0  0  0  0
 17 27  1  0  0  0  0
 17 28  1  0  0  0  0
 18 29  1  0  0  0  0
 18 30  1  0  0  0  0
M  CHG  6   1   2   2   2   3  -1   4  -1   5  -1   6  -1
M  END
> <PUBCHEM_COMPOUND_CID>
13307026

> <PUBCHEM_COMPOUND_CANONICALIZED>
1

> <PUBCHEM_CACTVS_COMPLEXITY>
248

> <PUBCHEM_CACTVS_HBOND_ACCEPTOR>
8

> <PUBCHEM_CACTVS_HBOND_DONOR>
4

> <PUBCHEM_CACTVS_ROTATABLE_BOND>
0

> <PUBCHEM_CACTVS_SUBSKEYS>
AAADccBzgAB4AABCAAAAAAAAAAAAAAAAAAAAAAAAAAAAAFgAAAAAHAQQAAAAAADBAAQAAALAAAAEAAAAAAAAAAAAAAkAAIAIAAAAQAAAAAAQAAAAEAAAAAAAAAAAAAAAAAAAAAAAAAAAAAAAAAAAAAAAAA==

> <PUBCHEM_IUPAC_OPENEYE_NAME>
manganous;zinc;N-[2-(sulfidocarbothioylamino)ethyl]carbamodithioate

> <PUBCHEM_IUPAC_CAS_NAME>
zinc;manganese(2+);N-[2-[[sulfanylidene(sulfido)methyl]amino]ethyl]carbamodithioate

> <PUBCHEM_IUPAC_NAME_MARKUP>
zinc;manganese(2+);<I>N</I>-[2-(sulfidocarbothioylamino)ethyl]carbamodithioate

> <PUBCHEM_IUPAC_NAME>
zinc;manganese(2+);N-[2-(sulfidocarbothioylamino)ethyl]carbamodithioate

> <PUBCHEM_IUPAC_SYSTEMATIC_NAME>
zinc;manganese(2+);N-[2-(sulfanidylcarbothioylamino)ethyl]carbamodithioate

> <PUBCHEM_IUPAC_TRADITIONAL_NAME>
manganous;zinc;N-[2-(sulfidocarbothioylamino)ethyl]carbamodithioate

> <PUBCHEM_IUPAC_INCHI>
InChI=1S/2C4H8N2S4.Mn.Zn/c2*7-3(8)5-1-2-6-4(9)10;;/h2*1-2H2,(H2,5,7,8)(H2,6,9,10);;/q;;2*+2/p-4

> <PUBCHEM_IUPAC_INCHIKEY>
CHNQZRKUZPNOOH-UHFFFAOYSA-J

> <PUBCHEM_EXACT_MASS>
538.749951

> <PUBCHEM_MOLECULAR_FORMULA>
C8H12MnN4S8Zn

> <PUBCHEM_MOLECULAR_WEIGHT>
541.1

> <PUBCHEM_OPENEYE_CAN_SMILES>
C(CNC(=S)[S-])NC(=S)[S-].C(CNC(=S)[S-])NC(=S)[S-].[Mn+2].[Zn+2]

> <PUBCHEM_OPENEYE_ISO_SMILES>
C(CNC(=S)[S-])NC(=S)[S-].C(CNC(=S)[S-])NC(=S)[S-].[Mn+2].[Zn+2]

> <PUBCHEM_CACTVS_TPSA>
181

> <PUBCHEM_MONOISOTOPIC_WEIGHT>
538.749951

> <PUBCHEM_TOTAL_CHARGE>
0

> <PUBCHEM_HEAVY_ATOM_COUNT>
22

> <PUBCHEM_ATOM_DEF_STEREO_COUNT>
0

> <PUBCHEM_ATOM_UDEF_STEREO_COUNT>
0

> <PUBCHEM_BOND_DEF_STEREO_COUNT>
0

> <PUBCHEM_BOND_UDEF_STEREO_COUNT>
0

> <PUBCHEM_ISOTOPIC_ATOM_COUNT>
0

> <PUBCHEM_COMPONENT_COUNT>
4

> <PUBCHEM_CACTVS_TAUTO_COUNT>
-1

> <PUBCHEM_NONSTANDARDBOND>
1  3  6
1  4  6
2  5  6
2  6  6

> <PUBCHEM_COORDINATE_TYPE>
1
5
255

$$$$
