91756
  -OEChem-03282214362D

 46 47  0     0  0  0  0  0  0999 V2000
    3.0000    2.0000    0.0000 S   0  0  0  0  0  0  0  0  0  0  0  0
    2.0000    2.0000    0.0000 O   0  0  0  0  0  0  0  0  0  0  0  0
    4.0000    2.0000    0.0000 O   0  0  0  0  0  0  0  0  0  0  0  0
    5.5981    3.5000    0.0000 O   0  0  0  0  0  0  0  0  0  0  0  0
    4.7320    2.0000    0.0000 O   0  0  0  0  0  0  0  0  0  0  0  0
    5.5981   -3.5000    0.0000 O   0  0  0  0  0  0  0  0  0  0  0  0
    4.7320    1.0000    0.0000 O   0  0  0  0  0  0  0  0  0  0  0  0
    3.0000    1.0000    0.0000 N   0  0  0  0  0  0  0  0  0  0  0  0
    3.8660   -0.5000    0.0000 N   0  0  0  0  0  0  0  0  0  0  0  0
    5.5981   -0.5000    0.0000 N   0  0  0  0  0  0  0  0  0  0  0  0
    4.7320   -2.0000    0.0000 N   0  0  0  0  0  0  0  0  0  0  0  0
    6.4641   -2.0000    0.0000 N   0  0  0  0  0  0  0  0  0  0  0  0
    7.3301   -0.5000    0.0000 N   0  0  0  0  0  0  0  0  0  0  0  0
    3.0000    3.0000    0.0000 C   0  0  0  0  0  0  0  0  0  0  0  0
    3.8660    3.5000    0.0000 C   0  0  0  0  0  0  0  0  0  0  0  0
    2.1340    3.5000    0.0000 C   0  0  0  0  0  0  0  0  0  0  0  0
    3.8660    4.5000    0.0000 C   0  0  0  0  0  0  0  0  0  0  0  0
    2.1340    4.5000    0.0000 C   0  0  0  0  0  0  0  0  0  0  0  0
    3.0000    5.0000    0.0000 C   0  0  0  0  0  0  0  0  0  0  0  0
    4.7320    3.0000    0.0000 C   0  0  0  0  0  0  0  0  0  0  0  0
    3.8660    0.5000    0.0000 C   0  0  0  0  0  0  0  0  0  0  0  0
    4.7320   -1.0000    0.0000 C   0  0  0  0  0  0  0  0  0  0  0  0
    6.4641   -1.0000    0.0000 C   0  0  0  0  0  0  0  0  0  0  0  0
    5.5981   -2.5000    0.0000 C   0  0  0  0  0  0  0  0  0  0  0  0
    4.7320   -4.0000    0.0000 C   0  0  0  0  0  0  0  0  0  0  0  0
    5.5981    4.5000    0.0000 C   0  0  0  0  0  0  0  0  0  0  0  0
    4.7320   -5.0000    0.0000 C   0  0  0  0  0  0  0  0  0  0  0  0
    8.1962   -1.0000    0.0000 C   0  0  0  0  0  0  0  0  0  0  0  0
    1.5970    3.1900    0.0000 H   0  0  0  0  0  0  0  0  0  0  0  0
    2.4631    0.6900    0.0000 H   0  0  0  0  0  0  0  0  0  0  0  0
    4.4030    4.8100    0.0000 H   0  0  0  0  0  0  0  0  0  0  0  0
    1.5970    4.8100    0.0000 H   0  0  0  0  0  0  0  0  0  0  0  0
    3.0000    5.6200    0.0000 H   0  0  0  0  0  0  0  0  0  0  0  0
    3.3291   -0.8100    0.0000 H   0  0  0  0  0  0  0  0  0  0  0  0
    4.5200   -3.4174    0.0000 H   0  0  0  0  0  0  0  0  0  0  0  0
    4.1215   -4.1077    0.0000 H   0  0  0  0  0  0  0  0  0  0  0  0
    7.3301    0.1200    0.0000 H   0  0  0  0  0  0  0  0  0  0  0  0
    6.2181    4.5000    0.0000 H   0  0  0  0  0  0  0  0  0  0  0  0
    5.5981    5.1200    0.0000 H   0  0  0  0  0  0  0  0  0  0  0  0
    4.9781    4.5000    0.0000 H   0  0  0  0  0  0  0  0  0  0  0  0
    4.1120   -5.0000    0.0000 H   0  0  0  0  0  0  0  0  0  0  0  0
    4.7320   -5.6200    0.0000 H   0  0  0  0  0  0  0  0  0  0  0  0
    5.3520   -5.0000    0.0000 H   0  0  0  0  0  0  0  0  0  0  0  0
    7.8862   -1.5369    0.0000 H   0  0  0  0  0  0  0  0  0  0  0  0
    8.7331   -1.3100    0.0000 H   0  0  0  0  0  0  0  0  0  0  0  0
    8.5062   -0.4631    0.0000 H   0  0  0  0  0  0  0  0  0  0  0  0
  1  2  2  0  0  0  0
  1  3  2  0  0  0  0
  1  8  1  0  0  0  0
  1 14  1  0  0  0  0
  4 20  1  0  0  0  0
  4 26  1  0  0  0  0
  5 20  2  0  0  0  0
  6 24  1  0  0  0  0
  6 25  1  0  0  0  0
  7 21  2  0  0  0  0
  8 21  1  0  0  0  0
  8 30  1  0  0  0  0
  9 21  1  0  0  0  0
  9 22  1  0  0  0  0
  9 34  1  0  0  0  0
 10 22  1  0  0  0  0
 10 23  2  0  0  0  0
 11 22  2  0  0  0  0
 11 24  1  0  0  0  0
 12 23  1  0  0  0  0
 12 24  2  0  0  0  0
 13 23  1  0  0  0  0
 13 28  1  0  0  0  0
 13 37  1  0  0  0  0
 14 15  1  0  0  0  0
 14 16  2  0  0  0  0
 15 17  2  0  0  0  0
 15 20  1  0  0  0  0
 16 18  1  0  0  0  0
 16 29  1  0  0  0  0
 17 19  1  0  0  0  0
 17 31  1  0  0  0  0
 18 19  2  0  0  0  0
 18 32  1  0  0  0  0
 19 33  1  0  0  0  0
 25 27  1  0  0  0  0
 25 35  1  0  0  0  0
 25 36  1  0  0  0  0
 26 38  1  0  0  0  0
 26 39  1  0  0  0  0
 26 40  1  0  0  0  0
 27 41  1  0  0  0  0
 27 42  1  0  0  0  0
 27 43  1  0  0  0  0
 28 44  1  0  0  0  0
 28 45  1  0  0  0  0
 28 46  1  0  0  0  0
M  END
> <PUBCHEM_COMPOUND_CID>
91756

> <PUBCHEM_COMPOUND_CANONICALIZED>
1

> <PUBCHEM_CACTVS_COMPLEXITY>
641

> <PUBCHEM_CACTVS_HBOND_ACCEPTOR>
10

> <PUBCHEM_CACTVS_HBOND_DONOR>
3

> <PUBCHEM_CACTVS_ROTATABLE_BOND>
8

> <PUBCHEM_CACTVS_SUBSKEYS>
AAADceBzuABAAAAAAAAAAAAAAAAAAAAAAAA8QAAAAAAAAAABwAAAHgQQQAAADACg2AYzGYbIFAKoAiDSPHBCABkkAIAJiJkICMiILjKANRiIMQAswQEIqYeIyCCOAAAAAAAEAAAAAAAAAAgAAAAAAAAAAA==

> <PUBCHEM_IUPAC_OPENEYE_NAME>
methyl 2-[[4-ethoxy-6-(methylamino)-1,3,5-triazin-2-yl]carbamoylsulfamoyl]benzoate

> <PUBCHEM_IUPAC_CAS_NAME>
2-[[[[4-ethoxy-6-(methylamino)-1,3,5-triazin-2-yl]amino]-oxomethyl]sulfamoyl]benzoic acid methyl ester

> <PUBCHEM_IUPAC_NAME_MARKUP>
methyl 2-[[4-ethoxy-6-(methylamino)-1,3,5-triazin-2-yl]carbamoylsulfamoyl]benzoate

> <PUBCHEM_IUPAC_NAME>
methyl 2-[[4-ethoxy-6-(methylamino)-1,3,5-triazin-2-yl]carbamoylsulfamoyl]benzoate

> <PUBCHEM_IUPAC_SYSTEMATIC_NAME>
methyl 2-[[4-ethoxy-6-(methylamino)-1,3,5-triazin-2-yl]carbamoylsulfamoyl]benzoate

> <PUBCHEM_IUPAC_TRADITIONAL_NAME>
2-[[4-ethoxy-6-(methylamino)-s-triazin-2-yl]carbamoylsulfamoyl]benzoic acid methyl ester

> <PUBCHEM_IUPAC_INCHI>
InChI=1S/C15H18N6O6S/c1-4-27-15-19-12(16-2)17-13(20-15)18-14(23)21-28(24,25)10-8-6-5-7-9(10)11(22)26-3/h5-8H,4H2,1-3H3,(H3,16,17,18,19,20,21,23)

> <PUBCHEM_IUPAC_INCHIKEY>
ZINJLDJMHCUBIP-UHFFFAOYSA-N

> <PUBCHEM_XLOGP3_AA>
1.8

> <PUBCHEM_EXACT_MASS>
410.10085349

> <PUBCHEM_MOLECULAR_FORMULA>
C15H18N6O6S

> <PUBCHEM_MOLECULAR_WEIGHT>
410.4

> <PUBCHEM_OPENEYE_CAN_SMILES>
CCOC1=NC(=NC(=N1)NC(=O)NS(=O)(=O)C2=CC=CC=C2C(=O)OC)NC

> <PUBCHEM_OPENEYE_ISO_SMILES>
CCOC1=NC(=NC(=N1)NC(=O)NS(=O)(=O)C2=CC=CC=C2C(=O)OC)NC

> <PUBCHEM_CACTVS_TPSA>
170

> <PUBCHEM_MONOISOTOPIC_WEIGHT>
410.10085349

> <PUBCHEM_TOTAL_CHARGE>
0

> <PUBCHEM_HEAVY_ATOM_COUNT>
28

> <PUBCHEM_ATOM_DEF_STEREO_COUNT>
0

> <PUBCHEM_ATOM_UDEF_STEREO_COUNT>
0

> <PUBCHEM_BOND_DEF_STEREO_COUNT>
0

> <PUBCHEM_BOND_UDEF_STEREO_COUNT>
0

> <PUBCHEM_ISOTOPIC_ATOM_COUNT>
0

> <PUBCHEM_COMPONENT_COUNT>
1

> <PUBCHEM_CACTVS_TAUTO_COUNT>
22

> <PUBCHEM_COORDINATE_TYPE>
1
5
255

> <PUBCHEM_BONDANNOTATIONS>
10  22  8
10  23  8
11  22  8
11  24  8
12  23  8
12  24  8
14  15  8
14  16  8
15  17  8
16  18  8
17  19  8
18  19  8

$$$$
