26124
  -OEChem-03282216102D

 34 35  0     0  0  0  0  0  0999 V2000
    6.7641    1.3977    0.0000 S   0  0  0  0  0  0  0  0  0  0  0  0
    7.2641    0.5317    0.0000 P   0  0  0  0  0  0  0  0  0  0  0  0
    6.3981    0.0317    0.0000 O   0  0  0  0  0  0  0  0  0  0  0  0
    8.1301    1.0317    0.0000 O   0  0  0  0  0  0  0  0  0  0  0  0
    7.7641   -0.3343    0.0000 O   0  0  0  0  0  0  0  0  0  0  0  0
    4.6660    0.0317    0.0000 N   0  0  0  0  0  0  0  0  0  0  0  0
    4.6660    2.0317    0.0000 N   0  0  0  0  0  0  0  0  0  0  0  0
    3.8000    0.5317    0.0000 C   0  0  0  0  0  0  0  0  0  0  0  0
    3.8000    1.5317    0.0000 C   0  0  0  0  0  0  0  0  0  0  0  0
    5.5321    0.5317    0.0000 C   0  0  0  0  0  0  0  0  0  0  0  0
    8.9962    0.5317    0.0000 C   0  0  0  0  0  0  0  0  0  0  0  0
    7.2641   -1.2003    0.0000 C   0  0  0  0  0  0  0  0  0  0  0  0
    2.9061   -0.0030    0.0000 C   0  0  0  0  0  0  0  0  0  0  0  0
    2.9061    2.0664    0.0000 C   0  0  0  0  0  0  0  0  0  0  0  0
    5.5321    1.5317    0.0000 C   0  0  0  0  0  0  0  0  0  0  0  0
    2.0000    0.5109    0.0000 C   0  0  0  0  0  0  0  0  0  0  0  0
    2.0000    1.5525    0.0000 C   0  0  0  0  0  0  0  0  0  0  0  0
    9.8622    1.0317    0.0000 C   0  0  0  0  0  0  0  0  0  0  0  0
    7.7641   -2.0664    0.0000 C   0  0  0  0  0  0  0  0  0  0  0  0
    8.5976    0.0568    0.0000 H   0  0  0  0  0  0  0  0  0  0  0  0
    9.3947    0.0568    0.0000 H   0  0  0  0  0  0  0  0  0  0  0  0
    6.7892   -0.8018    0.0000 H   0  0  0  0  0  0  0  0  0  0  0  0
    6.7892   -1.5989    0.0000 H   0  0  0  0  0  0  0  0  0  0  0  0
    2.9132   -0.6229    0.0000 H   0  0  0  0  0  0  0  0  0  0  0  0
    2.9132    2.6863    0.0000 H   0  0  0  0  0  0  0  0  0  0  0  0
    6.0690    1.8417    0.0000 H   0  0  0  0  0  0  0  0  0  0  0  0
    1.4643    0.1988    0.0000 H   0  0  0  0  0  0  0  0  0  0  0  0
   10.1722    0.4948    0.0000 H   0  0  0  0  0  0  0  0  0  0  0  0
   10.3991    1.3417    0.0000 H   0  0  0  0  0  0  0  0  0  0  0  0
    9.5522    1.5686    0.0000 H   0  0  0  0  0  0  0  0  0  0  0  0
    7.2272   -2.3764    0.0000 H   0  0  0  0  0  0  0  0  0  0  0  0
    8.0741   -2.6033    0.0000 H   0  0  0  0  0  0  0  0  0  0  0  0
    8.3010   -1.7564    0.0000 H   0  0  0  0  0  0  0  0  0  0  0  0
    1.4643    1.8646    0.0000 H   0  0  0  0  0  0  0  0  0  0  0  0
  1  2  2  0  0  0  0
  2  3  1  0  0  0  0
  2  4  1  0  0  0  0
  2  5  1  0  0  0  0
  3 10  1  0  0  0  0
  4 11  1  0  0  0  0
  5 12  1  0  0  0  0
  6  8  1  0  0  0  0
  6 10  2  0  0  0  0
  7  9  1  0  0  0  0
  7 15  2  0  0  0  0
  8  9  1  0  0  0  0
  8 13  2  0  0  0  0
  9 14  2  0  0  0  0
 10 15  1  0  0  0  0
 11 18  1  0  0  0  0
 11 20  1  0  0  0  0
 11 21  1  0  0  0  0
 12 19  1  0  0  0  0
 12 22  1  0  0  0  0
 12 23  1  0  0  0  0
 13 16  1  0  0  0  0
 13 24  1  0  0  0  0
 14 17  1  0  0  0  0
 14 25  1  0  0  0  0
 15 26  1  0  0  0  0
 16 17  2  0  0  0  0
 16 27  1  0  0  0  0
 17 34  1  0  0  0  0
 18 28  1  0  0  0  0
 18 29  1  0  0  0  0
 18 30  1  0  0  0  0
 19 31  1  0  0  0  0
 19 32  1  0  0  0  0
 19 33  1  0  0  0  0
M  END
> <PUBCHEM_COMPOUND_CID>
26124

> <PUBCHEM_COMPOUND_CANONICALIZED>
1

> <PUBCHEM_CACTVS_COMPLEXITY>
322

> <PUBCHEM_CACTVS_HBOND_ACCEPTOR>
6

> <PUBCHEM_CACTVS_HBOND_DONOR>
0

> <PUBCHEM_CACTVS_ROTATABLE_BOND>
6

> <PUBCHEM_CACTVS_SUBSKEYS>
AAADccBzMAJAAAAAAAAAAAAAAAAAAAAAAAA8QAAAAAAAAACx8AAAHgAAACAACAjhlgY+xLIIERCgATRnRASCgCQxUiAI2CA7dJgKYOLAkZGUIAhggADYyAcQAAAAAAAAAAAAACAAAAAAAAAAQAAAAAAAAA==

> <PUBCHEM_IUPAC_OPENEYE_NAME>
diethoxy-quinoxalin-2-yloxy-thioxo-lambda5-phosphane

> <PUBCHEM_IUPAC_CAS_NAME>
diethoxy-(2-quinoxalinyloxy)-sulfanylidenephosphorane

> <PUBCHEM_IUPAC_NAME_MARKUP>
diethoxy-quinoxalin-2-yloxy-sulfanylidene-&lambda;<SUP>5</SUP>-phosphane

> <PUBCHEM_IUPAC_NAME>
diethoxy-quinoxalin-2-yloxy-sulfanylidene-lambda5-phosphane

> <PUBCHEM_IUPAC_SYSTEMATIC_NAME>
diethoxy-quinoxalin-2-yloxy-sulfanylidene-lambda5-phosphane

> <PUBCHEM_IUPAC_TRADITIONAL_NAME>
diethoxy-quinoxalin-2-yloxy-thioxo-phosphorane

> <PUBCHEM_IUPAC_INCHI>
InChI=1S/C12H15N2O3PS/c1-3-15-18(19,16-4-2)17-12-9-13-10-7-5-6-8-11(10)14-12/h5-9H,3-4H2,1-2H3

> <PUBCHEM_IUPAC_INCHIKEY>
JYQUHIFYBATCCY-UHFFFAOYSA-N

> <PUBCHEM_XLOGP3>
4.4

> <PUBCHEM_EXACT_MASS>
298.05410052

> <PUBCHEM_MOLECULAR_FORMULA>
C12H15N2O3PS

> <PUBCHEM_MOLECULAR_WEIGHT>
298.30

> <PUBCHEM_OPENEYE_CAN_SMILES>
CCOP(=S)(OCC)OC1=NC2=CC=CC=C2N=C1

> <PUBCHEM_OPENEYE_ISO_SMILES>
CCOP(=S)(OCC)OC1=NC2=CC=CC=C2N=C1

> <PUBCHEM_CACTVS_TPSA>
85.6

> <PUBCHEM_MONOISOTOPIC_WEIGHT>
298.05410052

> <PUBCHEM_TOTAL_CHARGE>
0

> <PUBCHEM_HEAVY_ATOM_COUNT>
19

> <PUBCHEM_ATOM_DEF_STEREO_COUNT>
0

> <PUBCHEM_ATOM_UDEF_STEREO_COUNT>
0

> <PUBCHEM_BOND_DEF_STEREO_COUNT>
0

> <PUBCHEM_BOND_UDEF_STEREO_COUNT>
0

> <PUBCHEM_ISOTOPIC_ATOM_COUNT>
0

> <PUBCHEM_COMPONENT_COUNT>
1

> <PUBCHEM_CACTVS_TAUTO_COUNT>
1

> <PUBCHEM_COORDINATE_TYPE>
1
5
255

> <PUBCHEM_BONDANNOTATIONS>
10  15  8
13  16  8
14  17  8
16  17  8
6  10  8
6  8  8
7  15  8
7  9  8
8  13  8
8  9  8
9  14  8

$$$$
