54745
  -OEChem-03282214482D

 44 44  0     1  0  0  0  0  0999 V2000
    6.3301    4.0950    0.0000 Cl  0  0  0  0  0  0  0  0  0  0  0  0
    9.7942    4.0950    0.0000 Cl  0  0  0  0  0  0  0  0  0  0  0  0
    9.7942    2.0950    0.0000 F   0  0  0  0  0  0  0  0  0  0  0  0
    5.4641   -0.4050    0.0000 O   0  0  0  0  0  0  0  0  0  0  0  0
    6.3301    2.0950    0.0000 O   0  0  0  0  0  0  0  0  0  0  0  0
    4.5981    1.0950    0.0000 O   0  0  0  0  0  0  0  0  0  0  0  0
    8.0622    2.0950    0.0000 N   0  0  0  0  0  0  0  0  0  0  0  0
    8.0622    5.0950    0.0000 N   0  0  0  0  0  0  0  0  0  0  0  0
    3.7320   -2.4050    0.0000 C   0  0  0  0  0  0  0  0  0  0  0  0
    4.5981   -1.9050    0.0000 C   0  0  0  0  0  0  0  0  0  0  0  0
    3.7320   -3.4050    0.0000 C   0  0  0  0  0  0  0  0  0  0  0  0
    4.5981   -0.9050    0.0000 C   0  0  3  0  0  0  0  0  0  0  0  0
    2.8660   -3.9050    0.0000 C   0  0  0  0  0  0  0  0  0  0  0  0
    2.8660   -4.9050    0.0000 C   0  0  0  0  0  0  0  0  0  0  0  0
    3.7320   -0.4050    0.0000 C   0  0  0  0  0  0  0  0  0  0  0  0
    2.0000   -5.4050    0.0000 C   0  0  0  0  0  0  0  0  0  0  0  0
    5.4641    0.5950    0.0000 C   0  0  0  0  0  0  0  0  0  0  0  0
    6.3301    1.0950    0.0000 C   0  0  0  0  0  0  0  0  0  0  0  0
    7.1962    2.5950    0.0000 C   0  0  0  0  0  0  0  0  0  0  0  0
    7.1962    3.5950    0.0000 C   0  0  0  0  0  0  0  0  0  0  0  0
    8.0622    4.0950    0.0000 C   0  0  0  0  0  0  0  0  0  0  0  0
    8.9282    3.5950    0.0000 C   0  0  0  0  0  0  0  0  0  0  0  0
    8.9282    2.5950    0.0000 C   0  0  0  0  0  0  0  0  0  0  0  0
    3.5200   -1.8224    0.0000 H   0  0  0  0  0  0  0  0  0  0  0  0
    3.1215   -2.5127    0.0000 H   0  0  0  0  0  0  0  0  0  0  0  0
    4.8101   -2.4876    0.0000 H   0  0  0  0  0  0  0  0  0  0  0  0
    5.2087   -1.7973    0.0000 H   0  0  0  0  0  0  0  0  0  0  0  0
    3.9441   -3.9876    0.0000 H   0  0  0  0  0  0  0  0  0  0  0  0
    4.3426   -3.2973    0.0000 H   0  0  0  0  0  0  0  0  0  0  0  0
    4.5981   -0.2850    0.0000 H   0  0  0  0  0  0  0  0  0  0  0  0
    2.6540   -3.3224    0.0000 H   0  0  0  0  0  0  0  0  0  0  0  0
    2.2554   -4.0127    0.0000 H   0  0  0  0  0  0  0  0  0  0  0  0
    3.0781   -5.4876    0.0000 H   0  0  0  0  0  0  0  0  0  0  0  0
    3.4766   -4.7973    0.0000 H   0  0  0  0  0  0  0  0  0  0  0  0
    4.0420    0.1319    0.0000 H   0  0  0  0  0  0  0  0  0  0  0  0
    3.1951   -0.0950    0.0000 H   0  0  0  0  0  0  0  0  0  0  0  0
    3.4220   -0.9419    0.0000 H   0  0  0  0  0  0  0  0  0  0  0  0
    1.6900   -4.8681    0.0000 H   0  0  0  0  0  0  0  0  0  0  0  0
    1.4631   -5.7150    0.0000 H   0  0  0  0  0  0  0  0  0  0  0  0
    2.3100   -5.9419    0.0000 H   0  0  0  0  0  0  0  0  0  0  0  0
    6.5422    0.5124    0.0000 H   0  0  0  0  0  0  0  0  0  0  0  0
    6.9407    1.2027    0.0000 H   0  0  0  0  0  0  0  0  0  0  0  0
    8.5991    5.4050    0.0000 H   0  0  0  0  0  0  0  0  0  0  0  0
    7.5252    5.4050    0.0000 H   0  0  0  0  0  0  0  0  0  0  0  0
  1 20  1  0  0  0  0
  2 22  1  0  0  0  0
  3 23  1  0  0  0  0
  4 12  1  0  0  0  0
  4 17  1  0  0  0  0
  5 18  1  0  0  0  0
  5 19  1  0  0  0  0
  6 17  2  0  0  0  0
  7 19  2  0  0  0  0
  7 23  1  0  0  0  0
  8 21  1  0  0  0  0
  8 43  1  0  0  0  0
  8 44  1  0  0  0  0
  9 10  1  0  0  0  0
  9 11  1  0  0  0  0
  9 24  1  0  0  0  0
  9 25  1  0  0  0  0
 10 12  1  0  0  0  0
 10 26  1  0  0  0  0
 10 27  1  0  0  0  0
 11 13  1  0  0  0  0
 11 28  1  0  0  0  0
 11 29  1  0  0  0  0
 12 15  1  0  0  0  0
 12 30  1  0  0  0  0
 13 14  1  0  0  0  0
 13 31  1  0  0  0  0
 13 32  1  0  0  0  0
 14 16  1  0  0  0  0
 14 33  1  0  0  0  0
 14 34  1  0  0  0  0
 15 35  1  0  0  0  0
 15 36  1  0  0  0  0
 15 37  1  0  0  0  0
 16 38  1  0  0  0  0
 16 39  1  0  0  0  0
 16 40  1  0  0  0  0
 17 18  1  0  0  0  0
 18 41  1  0  0  0  0
 18 42  1  0  0  0  0
 19 20  1  0  0  0  0
 20 21  2  0  0  0  0
 21 22  1  0  0  0  0
 22 23  2  0  0  0  0
M  END
> <PUBCHEM_COMPOUND_CID>
54745

> <PUBCHEM_COMPOUND_CANONICALIZED>
1

> <PUBCHEM_CACTVS_COMPLEXITY>
366

> <PUBCHEM_CACTVS_HBOND_ACCEPTOR>
6

> <PUBCHEM_CACTVS_HBOND_DONOR>
1

> <PUBCHEM_CACTVS_ROTATABLE_BOND>
10

> <PUBCHEM_CACTVS_SUBSKEYS>
AAADceBzMQAGAAAAAAAAAAAAAAAAAAAAAAAsAAAAAAAAAAABgAAAHwIQAAAACB6hkioCzJJIFACoAATwTAKCiCAhJGAAmCBkT5gNJmPF8t/OPCjmwBnK6AeQ0KAAAAAAAAAAAAAAAAAAAAAAAAAAAAAAAA==

> <PUBCHEM_IUPAC_OPENEYE_NAME>
1-methylheptyl 2-[(4-amino-3,5-dichloro-6-fluoro-2-pyridyl)oxy]acetate

> <PUBCHEM_IUPAC_CAS_NAME>
2-[(4-amino-3,5-dichloro-6-fluoro-2-pyridinyl)oxy]acetic acid octan-2-yl ester

> <PUBCHEM_IUPAC_NAME_MARKUP>
octan-2-yl 2-(4-amino-3,5-dichloro-6-fluoropyridin-2-yl)oxyacetate

> <PUBCHEM_IUPAC_NAME>
octan-2-yl 2-(4-amino-3,5-dichloro-6-fluoropyridin-2-yl)oxyacetate

> <PUBCHEM_IUPAC_SYSTEMATIC_NAME>
octan-2-yl 2-[4-azanyl-3,5-bis(chloranyl)-6-fluoranyl-pyridin-2-yl]oxyethanoate

> <PUBCHEM_IUPAC_TRADITIONAL_NAME>
2-[(4-amino-3,5-dichloro-6-fluoro-2-pyridyl)oxy]acetic acid 1-methylheptyl ester

> <PUBCHEM_IUPAC_INCHI>
InChI=1S/C15H21Cl2FN2O3/c1-3-4-5-6-7-9(2)23-10(21)8-22-15-12(17)13(19)11(16)14(18)20-15/h9H,3-8H2,1-2H3,(H2,19,20)

> <PUBCHEM_IUPAC_INCHIKEY>
OLZQTUCTGLHFTQ-UHFFFAOYSA-N

> <PUBCHEM_XLOGP3_AA>
5.4

> <PUBCHEM_EXACT_MASS>
366.0913261

> <PUBCHEM_MOLECULAR_FORMULA>
C15H21Cl2FN2O3

> <PUBCHEM_MOLECULAR_WEIGHT>
367.2

> <PUBCHEM_OPENEYE_CAN_SMILES>
CCCCCCC(C)OC(=O)COC1=NC(=C(C(=C1Cl)N)Cl)F

> <PUBCHEM_OPENEYE_ISO_SMILES>
CCCCCCC(C)OC(=O)COC1=NC(=C(C(=C1Cl)N)Cl)F

> <PUBCHEM_CACTVS_TPSA>
74.4

> <PUBCHEM_MONOISOTOPIC_WEIGHT>
366.0913261

> <PUBCHEM_TOTAL_CHARGE>
0

> <PUBCHEM_HEAVY_ATOM_COUNT>
23

> <PUBCHEM_ATOM_DEF_STEREO_COUNT>
0

> <PUBCHEM_ATOM_UDEF_STEREO_COUNT>
1

> <PUBCHEM_BOND_DEF_STEREO_COUNT>
0

> <PUBCHEM_BOND_UDEF_STEREO_COUNT>
0

> <PUBCHEM_ISOTOPIC_ATOM_COUNT>
0

> <PUBCHEM_COMPONENT_COUNT>
1

> <PUBCHEM_CACTVS_TAUTO_COUNT>
2

> <PUBCHEM_COORDINATE_TYPE>
1
5
255

> <PUBCHEM_BONDANNOTATIONS>
12  15  3
19  20  8
20  21  8
21  22  8
22  23  8
7  19  8
7  23  8

$$$$
