19577
  -OEChem-03282214452D

 32 32  0     1  0  0  0  0  0999 V2000
    3.7320    2.7500    0.0000 S   0  0  3  0  0  0  0  0  0  0  0  0
    5.0981   -0.8840    0.0000 S   0  0  0  0  0  0  0  0  0  0  0  0
    4.5981   -1.7500    0.0000 P   0  0  0  0  0  0  0  0  0  0  0  0
    3.7320   -1.2500    0.0000 O   0  0  0  0  0  0  0  0  0  0  0  0
    5.4641   -2.2500    0.0000 O   0  0  0  0  0  0  0  0  0  0  0  0
    4.0981   -2.6160    0.0000 O   0  0  0  0  0  0  0  0  0  0  0  0
    2.8660    3.2500    0.0000 O   0  0  0  0  0  0  0  0  0  0  0  0
    2.8660    1.2500    0.0000 C   0  0  0  0  0  0  0  0  0  0  0  0
    3.7320    1.7500    0.0000 C   0  0  0  0  0  0  0  0  0  0  0  0
    3.7320   -0.2500    0.0000 C   0  0  0  0  0  0  0  0  0  0  0  0
    2.8660    0.2500    0.0000 C   0  0  0  0  0  0  0  0  0  0  0  0
    4.5981    1.2500    0.0000 C   0  0  0  0  0  0  0  0  0  0  0  0
    4.5981    0.2500    0.0000 C   0  0  0  0  0  0  0  0  0  0  0  0
    2.0000    1.7500    0.0000 C   0  0  0  0  0  0  0  0  0  0  0  0
    4.5981    3.2500    0.0000 C   0  0  0  0  0  0  0  0  0  0  0  0
    5.4641   -3.2500    0.0000 C   0  0  0  0  0  0  0  0  0  0  0  0
    3.0981   -2.6160    0.0000 C   0  0  0  0  0  0  0  0  0  0  0  0
    2.3291   -0.0600    0.0000 H   0  0  0  0  0  0  0  0  0  0  0  0
    5.1350    1.5600    0.0000 H   0  0  0  0  0  0  0  0  0  0  0  0
    5.1350   -0.0600    0.0000 H   0  0  0  0  0  0  0  0  0  0  0  0
    2.3100    2.2869    0.0000 H   0  0  0  0  0  0  0  0  0  0  0  0
    1.4631    2.0600    0.0000 H   0  0  0  0  0  0  0  0  0  0  0  0
    1.6900    1.2131    0.0000 H   0  0  0  0  0  0  0  0  0  0  0  0
    4.9081    2.7131    0.0000 H   0  0  0  0  0  0  0  0  0  0  0  0
    5.1350    3.5600    0.0000 H   0  0  0  0  0  0  0  0  0  0  0  0
    4.2881    3.7869    0.0000 H   0  0  0  0  0  0  0  0  0  0  0  0
    4.8441   -3.2500    0.0000 H   0  0  0  0  0  0  0  0  0  0  0  0
    5.4641   -3.8700    0.0000 H   0  0  0  0  0  0  0  0  0  0  0  0
    6.0841   -3.2500    0.0000 H   0  0  0  0  0  0  0  0  0  0  0  0
    3.0981   -1.9960    0.0000 H   0  0  0  0  0  0  0  0  0  0  0  0
    2.4781   -2.6160    0.0000 H   0  0  0  0  0  0  0  0  0  0  0  0
    3.0981   -3.2360    0.0000 H   0  0  0  0  0  0  0  0  0  0  0  0
  1  7  2  0  0  0  0
  1  9  1  0  0  0  0
  1 15  1  0  0  0  0
  2  3  2  0  0  0  0
  3  4  1  0  0  0  0
  3  5  1  0  0  0  0
  3  6  1  0  0  0  0
  4 10  1  0  0  0  0
  5 16  1  0  0  0  0
  6 17  1  0  0  0  0
  8  9  2  0  0  0  0
  8 11  1  0  0  0  0
  8 14  1  0  0  0  0
  9 12  1  0  0  0  0
 10 11  2  0  0  0  0
 10 13  1  0  0  0  0
 11 18  1  0  0  0  0
 12 13  2  0  0  0  0
 12 19  1  0  0  0  0
 13 20  1  0  0  0  0
 14 21  1  0  0  0  0
 14 22  1  0  0  0  0
 14 23  1  0  0  0  0
 15 24  1  0  0  0  0
 15 25  1  0  0  0  0
 15 26  1  0  0  0  0
 16 27  1  0  0  0  0
 16 28  1  0  0  0  0
 16 29  1  0  0  0  0
 17 30  1  0  0  0  0
 17 31  1  0  0  0  0
 17 32  1  0  0  0  0
M  END
> <PUBCHEM_COMPOUND_CID>
19577

> <PUBCHEM_COMPOUND_CANONICALIZED>
1

> <PUBCHEM_CACTVS_COMPLEXITY>
315

> <PUBCHEM_CACTVS_HBOND_ACCEPTOR>
6

> <PUBCHEM_CACTVS_HBOND_DONOR>
0

> <PUBCHEM_CACTVS_ROTATABLE_BOND>
5

> <PUBCHEM_CACTVS_SUBSKEYS>
AAADccBwOAJgAAAAAAAAAAAAAAAAAAAAAAAwAAAAAAAAAAABAAAAGgQAACAADASA2AKyB4AAARqAAiBCAEBCAAAgKBAIiBgGCIgIJiKgERKAMAAkwBEIiAeAwBAOAIABAAAEAAABAAIAAAgAAAAAAAAAAA==

> <PUBCHEM_IUPAC_OPENEYE_NAME>
dimethoxy-(3-methyl-4-methylsulfinyl-phenoxy)-thioxo-lambda5-phosphane

> <PUBCHEM_IUPAC_CAS_NAME>
dimethoxy-(3-methyl-4-methylsulfinylphenoxy)-sulfanylidenephosphorane

> <PUBCHEM_IUPAC_NAME_MARKUP>
dimethoxy-(3-methyl-4-methylsulfinylphenoxy)-sulfanylidene-&lambda;<SUP>5</SUP>-phosphane

> <PUBCHEM_IUPAC_NAME>
dimethoxy-(3-methyl-4-methylsulfinylphenoxy)-sulfanylidene-lambda5-phosphane

> <PUBCHEM_IUPAC_SYSTEMATIC_NAME>
dimethoxy-(3-methyl-4-methylsulfinyl-phenoxy)-sulfanylidene-lambda5-phosphane

> <PUBCHEM_IUPAC_TRADITIONAL_NAME>
dimethoxy-(3-methyl-4-methylsulfinyl-phenoxy)-thioxo-phosphorane

> <PUBCHEM_IUPAC_INCHI>
InChI=1S/C10H15O4PS2/c1-8-7-9(5-6-10(8)17(4)11)14-15(16,12-2)13-3/h5-7H,1-4H3

> <PUBCHEM_IUPAC_INCHIKEY>
DLAPIMGBBDILHJ-UHFFFAOYSA-N

> <PUBCHEM_XLOGP3>
2.7

> <PUBCHEM_EXACT_MASS>
294.01493830

> <PUBCHEM_MOLECULAR_FORMULA>
C10H15O4PS2

> <PUBCHEM_MOLECULAR_WEIGHT>
294.3

> <PUBCHEM_OPENEYE_CAN_SMILES>
CC1=C(C=CC(=C1)OP(=S)(OC)OC)S(=O)C

> <PUBCHEM_OPENEYE_ISO_SMILES>
CC1=C(C=CC(=C1)OP(=S)(OC)OC)S(=O)C

> <PUBCHEM_CACTVS_TPSA>
96.1

> <PUBCHEM_MONOISOTOPIC_WEIGHT>
294.01493830

> <PUBCHEM_TOTAL_CHARGE>
0

> <PUBCHEM_HEAVY_ATOM_COUNT>
17

> <PUBCHEM_ATOM_DEF_STEREO_COUNT>
0

> <PUBCHEM_ATOM_UDEF_STEREO_COUNT>
1

> <PUBCHEM_BOND_DEF_STEREO_COUNT>
0

> <PUBCHEM_BOND_UDEF_STEREO_COUNT>
0

> <PUBCHEM_ISOTOPIC_ATOM_COUNT>
0

> <PUBCHEM_COMPONENT_COUNT>
1

> <PUBCHEM_CACTVS_TAUTO_COUNT>
1

> <PUBCHEM_COORDINATE_TYPE>
1
5
255

> <PUBCHEM_BONDANNOTATIONS>
1  15  3
10  11  8
10  13  8
12  13  8
8  11  8
8  9  8
9  12  8

$$$$
