41093
  -OEChem-03282216262D

 60 60  0     0  0  0  0  0  0999 V2000
    4.3660    2.5981    0.0000 O   0  0  0  0  0  0  0  0  0  0  0  0
    4.3660    4.3301    0.0000 O   0  0  0  0  0  0  0  0  0  0  0  0
    2.8660    3.4641    0.0000 C   0  0  0  0  0  0  0  0  0  0  0  0
    2.0000    2.9641    0.0000 C   0  0  0  0  0  0  0  0  0  0  0  0
    2.0000    3.9641    0.0000 C   0  0  0  0  0  0  0  0  0  0  0  0
    3.8660    3.4641    0.0000 C   0  0  0  0  0  0  0  0  0  0  0  0
    9.8660   -0.0000    0.0000 C   0  0  0  0  0  0  0  0  0  0  0  0
   10.3660   -0.8660    0.0000 C   0  0  0  0  0  0  0  0  0  0  0  0
    8.8660   -0.0000    0.0000 C   0  0  0  0  0  0  0  0  0  0  0  0
   11.3660   -0.8660    0.0000 C   0  0  0  0  0  0  0  0  0  0  0  0
    8.3660    0.8660    0.0000 C   0  0  0  0  0  0  0  0  0  0  0  0
   11.8660   -1.7320    0.0000 C   0  0  0  0  0  0  0  0  0  0  0  0
    7.3660    0.8660    0.0000 C   0  0  0  0  0  0  0  0  0  0  0  0
    6.8660    1.7320    0.0000 C   0  0  0  0  0  0  0  0  0  0  0  0
    5.8660    1.7320    0.0000 C   0  0  0  0  0  0  0  0  0  0  0  0
   12.8660   -1.7320    0.0000 C   0  0  0  0  0  0  0  0  0  0  0  0
    5.3660    2.5981    0.0000 C   0  0  0  0  0  0  0  0  0  0  0  0
   13.3660   -2.5981    0.0000 C   0  0  0  0  0  0  0  0  0  0  0  0
   14.3660   -2.5981    0.0000 C   0  0  0  0  0  0  0  0  0  0  0  0
   14.8660   -3.4641    0.0000 C   0  0  0  0  0  0  0  0  0  0  0  0
   15.8660   -3.4641    0.0000 C   0  0  0  0  0  0  0  0  0  0  0  0
   16.3660   -4.3301    0.0000 C   0  0  0  0  0  0  0  0  0  0  0  0
    3.0265    2.8652    0.0000 H   0  0  0  0  0  0  0  0  0  0  0  0
    1.3894    2.8564    0.0000 H   0  0  0  0  0  0  0  0  0  0  0  0
    2.2120    2.3815    0.0000 H   0  0  0  0  0  0  0  0  0  0  0  0
    2.2120    4.5467    0.0000 H   0  0  0  0  0  0  0  0  0  0  0  0
    1.3894    4.0718    0.0000 H   0  0  0  0  0  0  0  0  0  0  0  0
   10.4486    0.2121    0.0000 H   0  0  0  0  0  0  0  0  0  0  0  0
    9.7584    0.6106    0.0000 H   0  0  0  0  0  0  0  0  0  0  0  0
    9.7834   -1.0781    0.0000 H   0  0  0  0  0  0  0  0  0  0  0  0
   10.4737   -1.4766    0.0000 H   0  0  0  0  0  0  0  0  0  0  0  0
    8.2834   -0.2121    0.0000 H   0  0  0  0  0  0  0  0  0  0  0  0
    8.9737   -0.6106    0.0000 H   0  0  0  0  0  0  0  0  0  0  0  0
   11.9486   -0.6540    0.0000 H   0  0  0  0  0  0  0  0  0  0  0  0
   11.2584   -0.2554    0.0000 H   0  0  0  0  0  0  0  0  0  0  0  0
    8.9486    1.0781    0.0000 H   0  0  0  0  0  0  0  0  0  0  0  0
    8.2584    1.4766    0.0000 H   0  0  0  0  0  0  0  0  0  0  0  0
   11.2834   -1.9441    0.0000 H   0  0  0  0  0  0  0  0  0  0  0  0
   11.9737   -2.3426    0.0000 H   0  0  0  0  0  0  0  0  0  0  0  0
    6.7834    0.6540    0.0000 H   0  0  0  0  0  0  0  0  0  0  0  0
    7.4737    0.2554    0.0000 H   0  0  0  0  0  0  0  0  0  0  0  0
    7.4486    1.9441    0.0000 H   0  0  0  0  0  0  0  0  0  0  0  0
    6.7584    2.3426    0.0000 H   0  0  0  0  0  0  0  0  0  0  0  0
   13.4486   -1.5200    0.0000 H   0  0  0  0  0  0  0  0  0  0  0  0
   12.7584   -1.1215    0.0000 H   0  0  0  0  0  0  0  0  0  0  0  0
    5.2834    1.5200    0.0000 H   0  0  0  0  0  0  0  0  0  0  0  0
    5.9737    1.1215    0.0000 H   0  0  0  0  0  0  0  0  0  0  0  0
    5.9486    2.8101    0.0000 H   0  0  0  0  0  0  0  0  0  0  0  0
    5.2584    3.2087    0.0000 H   0  0  0  0  0  0  0  0  0  0  0  0
   12.7834   -2.8101    0.0000 H   0  0  0  0  0  0  0  0  0  0  0  0
   13.4737   -3.2087    0.0000 H   0  0  0  0  0  0  0  0  0  0  0  0
   14.9486   -2.3860    0.0000 H   0  0  0  0  0  0  0  0  0  0  0  0
   14.2584   -1.9875    0.0000 H   0  0  0  0  0  0  0  0  0  0  0  0
   14.2834   -3.6762    0.0000 H   0  0  0  0  0  0  0  0  0  0  0  0
   14.9737   -4.0747    0.0000 H   0  0  0  0  0  0  0  0  0  0  0  0
   16.4486   -3.2520    0.0000 H   0  0  0  0  0  0  0  0  0  0  0  0
   15.7584   -2.8535    0.0000 H   0  0  0  0  0  0  0  0  0  0  0  0
   15.8291   -4.6401    0.0000 H   0  0  0  0  0  0  0  0  0  0  0  0
   16.6760   -4.8671    0.0000 H   0  0  0  0  0  0  0  0  0  0  0  0
   16.9030   -4.0201    0.0000 H   0  0  0  0  0  0  0  0  0  0  0  0
  1  6  1  0  0  0  0
  1 17  1  0  0  0  0
  2  6  2  0  0  0  0
  3  4  1  0  0  0  0
  3  5  1  0  0  0  0
  3  6  1  0  0  0  0
  3 23  1  0  0  0  0
  4  5  1  0  0  0  0
  4 24  1  0  0  0  0
  4 25  1  0  0  0  0
  5 26  1  0  0  0  0
  5 27  1  0  0  0  0
  7  8  1  0  0  0  0
  7  9  1  0  0  0  0
  7 28  1  0  0  0  0
  7 29  1  0  0  0  0
  8 10  1  0  0  0  0
  8 30  1  0  0  0  0
  8 31  1  0  0  0  0
  9 11  1  0  0  0  0
  9 32  1  0  0  0  0
  9 33  1  0  0  0  0
 10 12  1  0  0  0  0
 10 34  1  0  0  0  0
 10 35  1  0  0  0  0
 11 13  1  0  0  0  0
 11 36  1  0  0  0  0
 11 37  1  0  0  0  0
 12 16  1  0  0  0  0
 12 38  1  0  0  0  0
 12 39  1  0  0  0  0
 13 14  1  0  0  0  0
 13 40  1  0  0  0  0
 13 41  1  0  0  0  0
 14 15  1  0  0  0  0
 14 42  1  0  0  0  0
 14 43  1  0  0  0  0
 15 17  1  0  0  0  0
 15 46  1  0  0  0  0
 15 47  1  0  0  0  0
 16 18  1  0  0  0  0
 16 44  1  0  0  0  0
 16 45  1  0  0  0  0
 17 48  1  0  0  0  0
 17 49  1  0  0  0  0
 18 19  1  0  0  0  0
 18 50  1  0  0  0  0
 18 51  1  0  0  0  0
 19 20  1  0  0  0  0
 19 52  1  0  0  0  0
 19 53  1  0  0  0  0
 20 21  1  0  0  0  0
 20 54  1  0  0  0  0
 20 55  1  0  0  0  0
 21 22  1  0  0  0  0
 21 56  1  0  0  0  0
 21 57  1  0  0  0  0
 22 58  1  0  0  0  0
 22 59  1  0  0  0  0
 22 60  1  0  0  0  0
M  END
> <PUBCHEM_COMPOUND_CID>
41093

> <PUBCHEM_COMPOUND_CANONICALIZED>
1

> <PUBCHEM_CACTVS_COMPLEXITY>
258

> <PUBCHEM_CACTVS_HBOND_ACCEPTOR>
2

> <PUBCHEM_CACTVS_HBOND_DONOR>
0

> <PUBCHEM_CACTVS_ROTATABLE_BOND>
17

> <PUBCHEM_CACTVS_SUBSKEYS>
AAADcfB4MAAAAAAAAAAAAAAAGAAAAAAAAAAAAAAAAAAAAAAAAAAAGgAAAAAADQCggAICCAAABAAIAACQCAAAAAAAAAAAAAEAAAAAABIAAAACAAAEAAAAAAGAwKAAAAAAAAAAAAAAAAAAAAAAAAAAAAAAAA==

> <PUBCHEM_IUPAC_OPENEYE_NAME>
hexadecyl cyclopropanecarboxylate

> <PUBCHEM_IUPAC_CAS_NAME>
cyclopropanecarboxylic acid hexadecyl ester

> <PUBCHEM_IUPAC_NAME_MARKUP>
hexadecyl cyclopropanecarboxylate

> <PUBCHEM_IUPAC_NAME>
hexadecyl cyclopropanecarboxylate

> <PUBCHEM_IUPAC_SYSTEMATIC_NAME>
hexadecyl cyclopropanecarboxylate

> <PUBCHEM_IUPAC_TRADITIONAL_NAME>
cyclopropanecarboxylic acid cetyl ester

> <PUBCHEM_IUPAC_INCHI>
InChI=1S/C20H38O2/c1-2-3-4-5-6-7-8-9-10-11-12-13-14-15-18-22-20(21)19-16-17-19/h19H,2-18H2,1H3

> <PUBCHEM_IUPAC_INCHIKEY>
NSCKKHGFMYTPBG-UHFFFAOYSA-N

> <PUBCHEM_XLOGP3>
8.2

> <PUBCHEM_EXACT_MASS>
310.287180451

> <PUBCHEM_MOLECULAR_FORMULA>
C20H38O2

> <PUBCHEM_MOLECULAR_WEIGHT>
310.5

> <PUBCHEM_OPENEYE_CAN_SMILES>
CCCCCCCCCCCCCCCCOC(=O)C1CC1

> <PUBCHEM_OPENEYE_ISO_SMILES>
CCCCCCCCCCCCCCCCOC(=O)C1CC1

> <PUBCHEM_CACTVS_TPSA>
26.3

> <PUBCHEM_MONOISOTOPIC_WEIGHT>
310.287180451

> <PUBCHEM_TOTAL_CHARGE>
0

> <PUBCHEM_HEAVY_ATOM_COUNT>
22

> <PUBCHEM_ATOM_DEF_STEREO_COUNT>
0

> <PUBCHEM_ATOM_UDEF_STEREO_COUNT>
0

> <PUBCHEM_BOND_DEF_STEREO_COUNT>
0

> <PUBCHEM_BOND_UDEF_STEREO_COUNT>
0

> <PUBCHEM_ISOTOPIC_ATOM_COUNT>
0

> <PUBCHEM_COMPONENT_COUNT>
1

> <PUBCHEM_CACTVS_TAUTO_COUNT>
1

> <PUBCHEM_COORDINATE_TYPE>
1
5
255

$$$$
