71312398
  -OEChem-03282214342D

 26 28  0     1  0  0  0  0  0999 V2000
    6.3008   -1.6507    0.0000 Cl  0  0  0  0  0  0  0  0  0  0  0  0
    7.0773    1.2471    0.0000 Cl  0  0  0  0  0  0  0  0  0  0  0  0
    6.1864    2.2583    0.0000 Cl  0  0  0  0  0  0  0  0  0  0  0  0
    5.1683    1.6705    0.0000 Cl  0  0  0  0  0  0  0  0  0  0  0  0
    8.4586   -2.0596    0.0000 Cl  0  0  0  0  0  0  0  0  0  0  0  0
    9.0834    0.2724    0.0000 Cl  0  0  0  0  0  0  0  0  0  0  0  0
    2.9950   -1.5425    0.0000 S   0  0  0  0  0  0  0  0  0  0  0  0
    3.6962   -2.2282    0.0000 O   0  0  0  0  0  0  0  0  0  0  0  0
    3.0914   -0.5664    0.0000 O   0  0  0  0  0  0  0  0  0  0  0  0
    2.2968   -2.2583    0.0000 O   0  0  0  0  0  0  0  0  0  0  0  0
    2.0000   -1.4429    0.0000 O   0  0  0  0  0  0  0  0  0  0  0  0
    5.1869   -1.2768    0.0000 C   0  0  3  0  0  0  0  0  0  0  0  0
    4.8449   -0.3371    0.0000 C   0  0  3  0  0  0  0  0  0  0  0  0
    6.5596   -0.6847    0.0000 C   0  0  1  0  0  0  0  0  0  0  0  0
    6.8185    0.2812    0.0000 C   0  0  2  0  0  0  0  0  0  0  0  0
    6.0818    1.2638    0.0000 C   0  0  0  0  0  0  0  0  0  0  0  0
    7.9586   -1.1936    0.0000 C   0  0  0  0  0  0  0  0  0  0  0  0
    8.2174   -0.2276    0.0000 C   0  0  0  0  0  0  0  0  0  0  0  0
    4.6699   -2.1102    0.0000 C   0  0  0  0  0  0  0  0  0  0  0  0
    3.9131   -0.0310    0.0000 C   0  0  0  0  0  0  0  0  0  0  0  0
    5.5917   -1.7464    0.0000 H   0  0  0  0  0  0  0  0  0  0  0  0
    4.8492    0.2829    0.0000 H   0  0  0  0  0  0  0  0  0  0  0  0
    4.6051   -2.7268    0.0000 H   0  0  0  0  0  0  0  0  0  0  0  0
    5.2564   -2.3111    0.0000 H   0  0  0  0  0  0  0  0  0  0  0  0
    4.2333    0.5000    0.0000 H   0  0  0  0  0  0  0  0  0  0  0  0
    3.4671    0.3998    0.0000 H   0  0  0  0  0  0  0  0  0  0  0  0
 14  1  1  1  0  0  0
 15  2  1  6  0  0  0
  3 16  1  0  0  0  0
  4 16  1  0  0  0  0
  5 17  1  0  0  0  0
  6 18  1  0  0  0  0
  7  8  1  0  0  0  0
  7  9  1  0  0  0  0
  7 10  2  0  0  0  0
  7 11  2  0  0  0  0
  8 19  1  0  0  0  0
  9 20  1  0  0  0  0
 12 13  1  0  0  0  0
 12 14  1  0  0  0  0
 12 19  1  0  0  0  0
 12 21  1  0  0  0  0
 13 15  1  0  0  0  0
 13 20  1  0  0  0  0
 13 22  1  0  0  0  0
 14 16  1  0  0  0  0
 14 17  1  0  0  0  0
 15 16  1  0  0  0  0
 15 18  1  0  0  0  0
 17 18  2  0  0  0  0
 19 23  1  0  0  0  0
 19 24  1  0  0  0  0
 20 25  1  0  0  0  0
 20 26  1  0  0  0  0
M  END
> <PUBCHEM_COMPOUND_CID>
71312398

> <PUBCHEM_COMPOUND_CANONICALIZED>
1

> <PUBCHEM_CACTVS_COMPLEXITY>
568

> <PUBCHEM_CACTVS_HBOND_ACCEPTOR>
4

> <PUBCHEM_CACTVS_HBOND_DONOR>
0

> <PUBCHEM_CACTVS_ROTATABLE_BOND>
0

> <PUBCHEM_CACTVS_SUBSKEYS>
AAADcYBwOABHAAAAAAAAAAAAAAAAAYIAAAAgAAAABIAAAACQAAAAGgIAAAAADQKggIIAAAAAAACAAABAADAAAAAgAAAACEAAAggAAAIBAAAAAAAEgAAIAAPAwDAOgAAAAAAAAAAAAAAAAAAAARAASIACAA==

> <PUBCHEM_IUPAC_OPENEYE_NAME>
(1R,9S)-1,9,10,11,12,12-hexachloro-4,6-dioxa-5lambda6-thiatricyclo[7.2.1.02,8]dodec-10-ene 5,5-dioxide

> <PUBCHEM_IUPAC_CAS_NAME>
(1R,9S)-1,9,10,11,12,12-hexachloro-4,6-dioxa-5lambda6-thiatricyclo[7.2.1.02,8]dodec-10-ene 5,5-dioxide

> <PUBCHEM_IUPAC_NAME_MARKUP>
(1<I>R</I>,9<I>S</I>)-1,9,10,11,12,12-hexachloro-4,6-dioxa-5&lambda;<SUP>6</SUP>-thiatricyclo[7.2.1.0<SUP>2,8</SUP>]dodec-10-ene 5,5-dioxide

> <PUBCHEM_IUPAC_NAME>
(1R,9S)-1,9,10,11,12,12-hexachloro-4,6-dioxa-5lambda6-thiatricyclo[7.2.1.02,8]dodec-10-ene 5,5-dioxide

> <PUBCHEM_IUPAC_SYSTEMATIC_NAME>
(1R,9S)-1,9,10,11,12,12-hexakis(chloranyl)-4,6-dioxa-5lambda6-thiatricyclo[7.2.1.02,8]dodec-10-ene 5,5-dioxide

> <PUBCHEM_IUPAC_TRADITIONAL_NAME>
(1R,9S)-1,9,10,11,12,12-hexachloro-4,6-dioxa-5lambda6-thiatricyclo[7.2.1.02,8]dodec-10-ene 5,5-dioxide

> <PUBCHEM_IUPAC_INCHI>
InChI=1S/C9H6Cl6O4S/c10-5-6(11)8(13)4-2-19-20(16,17)18-1-3(4)7(5,12)9(8,14)15/h3-4H,1-2H2/t3?,4?,7-,8+

> <PUBCHEM_IUPAC_INCHIKEY>
AAPVQEMYVNZIOO-WINLOITPSA-N

> <PUBCHEM_XLOGP3>
3.7

> <PUBCHEM_EXACT_MASS>
421.808846

> <PUBCHEM_MOLECULAR_FORMULA>
C9H6Cl6O4S

> <PUBCHEM_MOLECULAR_WEIGHT>
422.9

> <PUBCHEM_OPENEYE_CAN_SMILES>
C1C2C(COS(=O)(=O)O1)C3(C(=C(C2(C3(Cl)Cl)Cl)Cl)Cl)Cl

> <PUBCHEM_OPENEYE_ISO_SMILES>
C1C2C(COS(=O)(=O)O1)[C@@]3(C(=C([C@]2(C3(Cl)Cl)Cl)Cl)Cl)Cl

> <PUBCHEM_CACTVS_TPSA>
61

> <PUBCHEM_MONOISOTOPIC_WEIGHT>
419.811796

> <PUBCHEM_TOTAL_CHARGE>
0

> <PUBCHEM_HEAVY_ATOM_COUNT>
20

> <PUBCHEM_ATOM_DEF_STEREO_COUNT>
2

> <PUBCHEM_ATOM_UDEF_STEREO_COUNT>
2

> <PUBCHEM_BOND_DEF_STEREO_COUNT>
0

> <PUBCHEM_BOND_UDEF_STEREO_COUNT>
0

> <PUBCHEM_ISOTOPIC_ATOM_COUNT>
0

> <PUBCHEM_COMPONENT_COUNT>
1

> <PUBCHEM_CACTVS_TAUTO_COUNT>
1

> <PUBCHEM_COORDINATE_TYPE>
1
5
255

> <PUBCHEM_BONDANNOTATIONS>
14  1  5
12  19  3
13  20  3
15  2  6

$$$$
