135492483
  -OEChem-03282216222D

 51 52  0     1  0  0  0  0  0999 V2000
    2.5369    1.0000    0.0000 O   0  0  0  0  0  0  0  0  0  0  0  0
    6.0010    1.0000    0.0000 O   0  0  0  0  0  0  0  0  0  0  0  0
    5.1350    3.5000    0.0000 O   0  0  0  0  0  0  0  0  0  0  0  0
    5.1350    2.5000    0.0000 N   0  0  0  0  0  0  0  0  0  0  0  0
    4.2690   -1.0000    0.0000 C   0  0  3  0  0  0  0  0  0  0  0  0
    3.4030   -0.5000    0.0000 C   0  0  0  0  0  0  0  0  0  0  0  0
    5.1350   -0.5000    0.0000 C   0  0  0  0  0  0  0  0  0  0  0  0
    4.2690   -2.0000    0.0000 C   0  0  0  0  0  0  0  0  0  0  0  0
    3.4030    0.5000    0.0000 C   0  0  0  0  0  0  0  0  0  0  0  0
    5.1350    0.5000    0.0000 C   0  0  0  0  0  0  0  0  0  0  0  0
    4.2690    1.0000    0.0000 C   0  0  0  0  0  0  0  0  0  0  0  0
    3.4030   -2.5000    0.0000 C   0  0  0  0  0  0  0  0  0  0  0  0
    5.1350   -2.5000    0.0000 C   0  0  0  0  0  0  0  0  0  0  0  0
    3.4030   -3.5000    0.0000 C   0  0  0  0  0  0  0  0  0  0  0  0
    5.1350   -3.5000    0.0000 C   0  0  0  0  0  0  0  0  0  0  0  0
    4.2690    2.0000    0.0000 C   0  0  0  0  0  0  0  0  0  0  0  0
    4.2690   -4.0000    0.0000 C   0  0  0  0  0  0  0  0  0  0  0  0
    2.5369   -2.0000    0.0000 C   0  0  0  0  0  0  0  0  0  0  0  0
    6.0010   -2.0000    0.0000 C   0  0  0  0  0  0  0  0  0  0  0  0
    3.4030    2.5000    0.0000 C   0  0  0  0  0  0  0  0  0  0  0  0
    4.2690   -5.0000    0.0000 C   0  0  0  0  0  0  0  0  0  0  0  0
    3.4030    3.5000    0.0000 C   0  0  0  0  0  0  0  0  0  0  0  0
    6.0010    4.0000    0.0000 C   0  0  0  0  0  0  0  0  0  0  0  0
    6.0010    5.0000    0.0000 C   0  0  0  0  0  0  0  0  0  0  0  0
    4.8059   -1.3100    0.0000 H   0  0  0  0  0  0  0  0  0  0  0  0
    2.7924   -0.3923    0.0000 H   0  0  0  0  0  0  0  0  0  0  0  0
    3.1909   -1.0826    0.0000 H   0  0  0  0  0  0  0  0  0  0  0  0
    5.3471   -1.0826    0.0000 H   0  0  0  0  0  0  0  0  0  0  0  0
    5.7456   -0.3923    0.0000 H   0  0  0  0  0  0  0  0  0  0  0  0
    2.8660   -3.8100    0.0000 H   0  0  0  0  0  0  0  0  0  0  0  0
    5.6720   -3.8100    0.0000 H   0  0  0  0  0  0  0  0  0  0  0  0
    2.8469   -1.4631    0.0000 H   0  0  0  0  0  0  0  0  0  0  0  0
    2.0000   -1.6900    0.0000 H   0  0  0  0  0  0  0  0  0  0  0  0
    2.2269   -2.5369    0.0000 H   0  0  0  0  0  0  0  0  0  0  0  0
    6.3110   -2.5369    0.0000 H   0  0  0  0  0  0  0  0  0  0  0  0
    6.5380   -1.6900    0.0000 H   0  0  0  0  0  0  0  0  0  0  0  0
    5.6910   -1.4631    0.0000 H   0  0  0  0  0  0  0  0  0  0  0  0
    2.7924    2.6077    0.0000 H   0  0  0  0  0  0  0  0  0  0  0  0
    3.1909    1.9174    0.0000 H   0  0  0  0  0  0  0  0  0  0  0  0
    2.0000    0.6900    0.0000 H   0  0  0  0  0  0  0  0  0  0  0  0
    3.6490   -5.0000    0.0000 H   0  0  0  0  0  0  0  0  0  0  0  0
    4.2690   -5.6200    0.0000 H   0  0  0  0  0  0  0  0  0  0  0  0
    4.8890   -5.0000    0.0000 H   0  0  0  0  0  0  0  0  0  0  0  0
    4.0230    3.5000    0.0000 H   0  0  0  0  0  0  0  0  0  0  0  0
    3.4030    4.1200    0.0000 H   0  0  0  0  0  0  0  0  0  0  0  0
    2.7830    3.5000    0.0000 H   0  0  0  0  0  0  0  0  0  0  0  0
    6.2131    3.4174    0.0000 H   0  0  0  0  0  0  0  0  0  0  0  0
    6.6116    4.1077    0.0000 H   0  0  0  0  0  0  0  0  0  0  0  0
    6.6210    5.0000    0.0000 H   0  0  0  0  0  0  0  0  0  0  0  0
    6.0010    5.6200    0.0000 H   0  0  0  0  0  0  0  0  0  0  0  0
    5.3810    5.0000    0.0000 H   0  0  0  0  0  0  0  0  0  0  0  0
  1  9  1  0  0  0  0
  1 40  1  0  0  0  0
  2 10  2  0  0  0  0
  3  4  1  0  0  0  0
  3 23  1  0  0  0  0
  4 16  2  0  0  0  0
  5  6  1  0  0  0  0
  5  7  1  0  0  0  0
  5  8  1  0  0  0  0
  5 25  1  0  0  0  0
  6  9  1  0  0  0  0
  6 26  1  0  0  0  0
  6 27  1  0  0  0  0
  7 10  1  0  0  0  0
  7 28  1  0  0  0  0
  7 29  1  0  0  0  0
  8 12  2  0  0  0  0
  8 13  1  0  0  0  0
  9 11  2  0  0  0  0
 10 11  1  0  0  0  0
 11 16  1  0  0  0  0
 12 14  1  0  0  0  0
 12 18  1  0  0  0  0
 13 15  2  0  0  0  0
 13 19  1  0  0  0  0
 14 17  2  0  0  0  0
 14 30  1  0  0  0  0
 15 17  1  0  0  0  0
 15 31  1  0  0  0  0
 16 20  1  0  0  0  0
 17 21  1  0  0  0  0
 18 32  1  0  0  0  0
 18 33  1  0  0  0  0
 18 34  1  0  0  0  0
 19 35  1  0  0  0  0
 19 36  1  0  0  0  0
 19 37  1  0  0  0  0
 20 22  1  0  0  0  0
 20 38  1  0  0  0  0
 20 39  1  0  0  0  0
 21 41  1  0  0  0  0
 21 42  1  0  0  0  0
 21 43  1  0  0  0  0
 22 44  1  0  0  0  0
 22 45  1  0  0  0  0
 22 46  1  0  0  0  0
 23 24  1  0  0  0  0
 23 47  1  0  0  0  0
 23 48  1  0  0  0  0
 24 49  1  0  0  0  0
 24 50  1  0  0  0  0
 24 51  1  0  0  0  0
M  END
> <PUBCHEM_COMPOUND_CID>
135492483

> <PUBCHEM_COMPOUND_CANONICALIZED>
1

> <PUBCHEM_CACTVS_COMPLEXITY>
511

> <PUBCHEM_CACTVS_HBOND_ACCEPTOR>
4

> <PUBCHEM_CACTVS_HBOND_DONOR>
1

> <PUBCHEM_CACTVS_ROTATABLE_BOND>
5

> <PUBCHEM_CACTVS_SUBSKEYS>
AAADceB6MAAAAAAAAAAAAAAAAAAAAAAAAAAwQAAAAAAAAAABAAAAHgAECAAADQyhmAIyAIAQAgCoA6ByAAACAAAgIAAAiAEwANgIIDKAERCAYAAkgAAIiQeIzPCOwAACAAAQAACAAAQAACAAAAAAAAAAAA==

> <PUBCHEM_IUPAC_OPENEYE_NAME>
2-[(E)-N-ethoxy-C-ethyl-carbonimidoyl]-3-hydroxy-5-(2,4,6-trimethylphenyl)cyclohex-2-en-1-one

> <PUBCHEM_IUPAC_CAS_NAME>
2-[(1E)-1-ethoxyiminopropyl]-3-hydroxy-5-(2,4,6-trimethylphenyl)-1-cyclohex-2-enone

> <PUBCHEM_IUPAC_NAME_MARKUP>
2-[(<I>E</I>)-<I>N</I>-ethoxy-<I>C</I>-ethylcarbonimidoyl]-3-hydroxy-5-(2,4,6-trimethylphenyl)cyclohex-2-en-1-one

> <PUBCHEM_IUPAC_NAME>
2-[(E)-N-ethoxy-C-ethylcarbonimidoyl]-3-hydroxy-5-(2,4,6-trimethylphenyl)cyclohex-2-en-1-one

> <PUBCHEM_IUPAC_SYSTEMATIC_NAME>
2-[(E)-N-ethoxy-C-ethyl-carbonimidoyl]-3-oxidanyl-5-(2,4,6-trimethylphenyl)cyclohex-2-en-1-one

> <PUBCHEM_IUPAC_TRADITIONAL_NAME>
2-[(E)-N-ethoxy-C-ethyl-carbonimidoyl]-3-hydroxy-5-mesityl-cyclohex-2-en-1-one

> <PUBCHEM_IUPAC_INCHI>
InChI=1S/C20H27NO3/c1-6-16(21-24-7-2)20-17(22)10-15(11-18(20)23)19-13(4)8-12(3)9-14(19)5/h8-9,15,22H,6-7,10-11H2,1-5H3/b21-16+

> <PUBCHEM_IUPAC_INCHIKEY>
DQFPEYARZIQXRM-LTGZKZEYSA-N

> <PUBCHEM_XLOGP3_AA>
4.1

> <PUBCHEM_EXACT_MASS>
329.19909372

> <PUBCHEM_MOLECULAR_FORMULA>
C20H27NO3

> <PUBCHEM_MOLECULAR_WEIGHT>
329.4

> <PUBCHEM_OPENEYE_CAN_SMILES>
CCC(=NOCC)C1=C(CC(CC1=O)C2=C(C=C(C=C2C)C)C)O

> <PUBCHEM_OPENEYE_ISO_SMILES>
CC/C(=N\OCC)/C1=C(CC(CC1=O)C2=C(C=C(C=C2C)C)C)O

> <PUBCHEM_CACTVS_TPSA>
58.9

> <PUBCHEM_MONOISOTOPIC_WEIGHT>
329.19909372

> <PUBCHEM_TOTAL_CHARGE>
0

> <PUBCHEM_HEAVY_ATOM_COUNT>
24

> <PUBCHEM_ATOM_DEF_STEREO_COUNT>
0

> <PUBCHEM_ATOM_UDEF_STEREO_COUNT>
1

> <PUBCHEM_BOND_DEF_STEREO_COUNT>
1

> <PUBCHEM_BOND_UDEF_STEREO_COUNT>
0

> <PUBCHEM_ISOTOPIC_ATOM_COUNT>
0

> <PUBCHEM_COMPONENT_COUNT>
1

> <PUBCHEM_CACTVS_TAUTO_COUNT>
13

> <PUBCHEM_COORDINATE_TYPE>
1
5
255

> <PUBCHEM_BONDANNOTATIONS>
12  14  8
13  15  8
14  17  8
15  17  8
5  8  3
8  12  8
8  13  8

$$$$
