12310947
  -OEChem-03282214032D

 26 29  0     1  0  0  0  0  0999 V2000
    4.3201   -2.0455    0.0000 Cl  0  0  0  0  0  0  0  0  0  0  0  0
    5.5546    1.3463    0.0000 Cl  0  0  0  0  0  0  0  0  0  0  0  0
    6.2927   -1.1362    0.0000 Cl  0  0  0  0  0  0  0  0  0  0  0  0
    6.4813   -0.6182    0.0000 Cl  0  0  0  0  0  0  0  0  0  0  0  0
    6.2121   -1.9665    0.0000 Cl  0  0  0  0  0  0  0  0  0  0  0  0
    6.9532    0.0696    0.0000 Cl  0  0  0  0  0  0  0  0  0  0  0  0
    3.8751   -0.4951    0.0000 C   0  0  1  0  0  0  0  0  0  0  0  0
    4.2172    0.4446    0.0000 C   0  0  2  0  0  0  0  0  0  0  0  0
    4.6601   -1.1051    0.0000 C   0  0  2  0  0  0  0  0  0  0  0  0
    5.2105    0.4073    0.0000 C   0  0  1  0  0  0  0  0  0  0  0  0
    2.5024    0.0969    0.0000 C   0  0  1  0  0  0  0  0  0  0  0  0
    2.2436    1.0629    0.0000 C   0  0  2  0  0  0  0  0  0  0  0  0
    5.4837   -0.5485    0.0000 C   0  0  0  0  0  0  0  0  0  0  0  0
    2.9802    2.0455    0.0000 C   0  0  0  0  0  0  0  0  0  0  0  0
    5.6522   -1.1380    0.0000 C   0  0  0  0  0  0  0  0  0  0  0  0
    5.9917   -0.2052    0.0000 C   0  0  0  0  0  0  0  0  0  0  0  0
    1.1035   -0.4119    0.0000 C   0  0  0  0  0  0  0  0  0  0  0  0
    0.8447    0.5541    0.0000 C   0  0  0  0  0  0  0  0  0  0  0  0
    3.5844   -1.2938    0.0000 H   0  0  0  0  0  0  0  0  0  0  0  0
    4.5079    1.2434    0.0000 H   0  0  0  0  0  0  0  0  0  0  0  0
    2.7224   -0.7241    0.0000 H   0  0  0  0  0  0  0  0  0  0  0  0
    2.0236    1.8839    0.0000 H   0  0  0  0  0  0  0  0  0  0  0  0
    2.6624    2.5778    0.0000 H   0  0  0  0  0  0  0  0  0  0  0  0
    3.5934    2.1374    0.0000 H   0  0  0  0  0  0  0  0  0  0  0  0
    0.8171   -0.9618    0.0000 H   0  0  0  0  0  0  0  0  0  0  0  0
    0.2948    0.8404    0.0000 H   0  0  0  0  0  0  0  0  0  0  0  0
  9  1  1  6  0  0  0
 10  2  1  6  0  0  0
  3 13  1  0  0  0  0
  4 13  1  0  0  0  0
  5 15  1  0  0  0  0
  6 16  1  0  0  0  0
  7  8  1  0  0  0  0
  7  9  1  0  0  0  0
  7 11  1  0  0  0  0
  7 19  1  6  0  0  0
  8 10  1  0  0  0  0
  8 12  1  0  0  0  0
  8 20  1  6  0  0  0
  9 13  1  0  0  0  0
  9 15  1  0  0  0  0
 10 13  1  0  0  0  0
 10 16  1  0  0  0  0
 11 14  1  0  0  0  0
 11 17  1  0  0  0  0
 11 21  1  1  0  0  0
 12 14  1  0  0  0  0
 12 18  1  0  0  0  0
 12 22  1  6  0  0  0
 14 23  1  0  0  0  0
 14 24  1  0  0  0  0
 15 16  2  0  0  0  0
 17 18  2  0  0  0  0
 17 25  1  0  0  0  0
 18 26  1  0  0  0  0
M  END
> <PUBCHEM_COMPOUND_CID>
12310947

> <PUBCHEM_COMPOUND_CANONICALIZED>
1

> <PUBCHEM_CACTVS_COMPLEXITY>
481

> <PUBCHEM_CACTVS_HBOND_ACCEPTOR>
0

> <PUBCHEM_CACTVS_HBOND_DONOR>
0

> <PUBCHEM_CACTVS_ROTATABLE_BOND>
0

> <PUBCHEM_CACTVS_SUBSKEYS>
AAADccBwAAAHAAAAAAAAAAAAAAAAAYMECAAgQAAAAAAYAAAAAAAAGAIAAAAADQKAAIAAAAAAAACAACBCAAAAAAAgAAAICEAAAggAAAIBAQAAAAAAgAAIAAMAgMAOgAAAAAAAAAAAAAAAAAAAARAASIACAA==

> <PUBCHEM_IUPAC_OPENEYE_NAME>
(1S,2S,3S,6R,7R,8R)-1,8,9,10,11,11-hexachlorotetracyclo[6.2.1.13,6.02,7]dodeca-4,9-diene

> <PUBCHEM_IUPAC_CAS_NAME>
(1S,2S,3S,6R,7R,8R)-1,8,9,10,11,11-hexachlorotetracyclo[6.2.1.13,6.02,7]dodeca-4,9-diene

> <PUBCHEM_IUPAC_NAME_MARKUP>
(1<I>S</I>,2<I>S</I>,3<I>S</I>,6<I>R</I>,7<I>R</I>,8<I>R</I>)-1,8,9,10,11,11-hexachlorotetracyclo[6.2.1.1<SUP>3,6</SUP>.0<SUP>2,7</SUP>]dodeca-4,9-diene

> <PUBCHEM_IUPAC_NAME>
(1S,2S,3S,6R,7R,8R)-1,8,9,10,11,11-hexachlorotetracyclo[6.2.1.13,6.02,7]dodeca-4,9-diene

> <PUBCHEM_IUPAC_SYSTEMATIC_NAME>
(1S,2S,3S,6R,7R,8R)-1,8,9,10,11,11-hexakis(chloranyl)tetracyclo[6.2.1.13,6.02,7]dodeca-4,9-diene

> <PUBCHEM_IUPAC_TRADITIONAL_NAME>
(1S,2S,3S,6R,7R,8R)-1,8,9,10,11,11-hexachlorotetracyclo[6.2.1.13,6.02,7]dodeca-4,9-diene

> <PUBCHEM_IUPAC_INCHI>
InChI=1S/C12H8Cl6/c13-8-9(14)11(16)7-5-2-1-4(3-5)6(7)10(8,15)12(11,17)18/h1-2,4-7H,3H2/t4-,5+,6+,7-,10+,11-

> <PUBCHEM_IUPAC_INCHIKEY>
QBYJBZPUGVGKQQ-SJJAEHHWSA-N

> <PUBCHEM_XLOGP3_AA>
4.5

> <PUBCHEM_EXACT_MASS>
363.872766

> <PUBCHEM_MOLECULAR_FORMULA>
C12H8Cl6

> <PUBCHEM_MOLECULAR_WEIGHT>
364.9

> <PUBCHEM_OPENEYE_CAN_SMILES>
C1C2C=CC1C3C2C4(C(=C(C3(C4(Cl)Cl)Cl)Cl)Cl)Cl

> <PUBCHEM_OPENEYE_ISO_SMILES>
C1[C@@H]2C=C[C@H]1[C@H]3[C@@H]2[C@]4(C(=C([C@@]3(C4(Cl)Cl)Cl)Cl)Cl)Cl

> <PUBCHEM_CACTVS_TPSA>
0

> <PUBCHEM_MONOISOTOPIC_WEIGHT>
361.875716

> <PUBCHEM_TOTAL_CHARGE>
0

> <PUBCHEM_HEAVY_ATOM_COUNT>
18

> <PUBCHEM_ATOM_DEF_STEREO_COUNT>
6

> <PUBCHEM_ATOM_UDEF_STEREO_COUNT>
0

> <PUBCHEM_BOND_DEF_STEREO_COUNT>
0

> <PUBCHEM_BOND_UDEF_STEREO_COUNT>
0

> <PUBCHEM_ISOTOPIC_ATOM_COUNT>
0

> <PUBCHEM_COMPONENT_COUNT>
1

> <PUBCHEM_CACTVS_TAUTO_COUNT>
-1

> <PUBCHEM_COORDINATE_TYPE>
1
5
255

> <PUBCHEM_BONDANNOTATIONS>
9  1  6
11  21  5
12  22  6
10  2  6
7  19  6
8  20  6

$$$$
