11193251
  -OEChem-03282214462D

 60 61  0     0  0  0  0  0  0999 V2000
    6.5981   -4.7500    0.0000 I   0  0  0  0  0  0  0  0  0  0  0  0
   10.0622   -2.7500    0.0000 S   0  0  0  0  0  0  0  0  0  0  0  0
    5.0000    2.7500    0.0000 F   0  0  0  0  0  0  0  0  0  0  0  0
    4.0000    4.7500    0.0000 F   0  0  0  0  0  0  0  0  0  0  0  0
    3.2340    4.3929    0.0000 F   0  0  0  0  0  0  0  0  0  0  0  0
    5.0000    3.7500    0.0000 F   0  0  0  0  0  0  0  0  0  0  0  0
    2.0000    2.7500    0.0000 F   0  0  0  0  0  0  0  0  0  0  0  0
    3.0000    3.7500    0.0000 F   0  0  0  0  0  0  0  0  0  0  0  0
    2.3572    1.9840    0.0000 F   0  0  0  0  0  0  0  0  0  0  0  0
   10.5622   -1.8840    0.0000 O   0  0  0  0  0  0  0  0  0  0  0  0
    9.5622   -3.6160    0.0000 O   0  0  0  0  0  0  0  0  0  0  0  0
    6.5981   -1.7500    0.0000 O   0  0  0  0  0  0  0  0  0  0  0  0
    5.7320   -1.2500    0.0000 O   0  0  0  0  0  0  0  0  0  0  0  0
    7.4641   -3.2500    0.0000 N   0  0  0  0  0  0  0  0  0  0  0  0
    4.0000   -1.2500    0.0000 N   0  0  0  0  0  0  0  0  0  0  0  0
    8.3301   -2.7500    0.0000 C   0  0  0  0  0  0  0  0  0  0  0  0
    9.1962   -2.2500    0.0000 C   0  0  0  0  0  0  0  0  0  0  0  0
    8.8301   -3.6160    0.0000 C   0  0  0  0  0  0  0  0  0  0  0  0
    7.8301   -1.8840    0.0000 C   0  0  0  0  0  0  0  0  0  0  0  0
   10.9282   -3.2500    0.0000 C   0  0  0  0  0  0  0  0  0  0  0  0
    6.5981   -2.7500    0.0000 C   0  0  0  0  0  0  0  0  0  0  0  0
    5.7320   -3.2500    0.0000 C   0  0  0  0  0  0  0  0  0  0  0  0
    4.0000    2.7500    0.0000 C   0  0  0  0  0  0  0  0  0  0  0  0
    4.0000    1.7500    0.0000 C   0  0  0  0  0  0  0  0  0  0  0  0
    4.8660   -2.7500    0.0000 C   0  0  0  0  0  0  0  0  0  0  0  0
    3.1340    0.2500    0.0000 C   0  0  0  0  0  0  0  0  0  0  0  0
    4.0000   -0.2500    0.0000 C   0  0  0  0  0  0  0  0  0  0  0  0
    3.1340    1.2500    0.0000 C   0  0  0  0  0  0  0  0  0  0  0  0
    4.8660    1.2500    0.0000 C   0  0  0  0  0  0  0  0  0  0  0  0
    4.0000    3.7500    0.0000 C   0  0  0  0  0  0  0  0  0  0  0  0
    3.0000    2.7500    0.0000 C   0  0  0  0  0  0  0  0  0  0  0  0
    5.7320   -4.2500    0.0000 C   0  0  0  0  0  0  0  0  0  0  0  0
    4.8660    0.2500    0.0000 C   0  0  0  0  0  0  0  0  0  0  0  0
    4.8660   -1.7500    0.0000 C   0  0  0  0  0  0  0  0  0  0  0  0
    4.0000   -3.2500    0.0000 C   0  0  0  0  0  0  0  0  0  0  0  0
    2.2680   -0.2500    0.0000 C   0  0  0  0  0  0  0  0  0  0  0  0
    4.8660   -4.7500    0.0000 C   0  0  0  0  0  0  0  0  0  0  0  0
    4.0000   -4.2500    0.0000 C   0  0  0  0  0  0  0  0  0  0  0  0
    9.5947   -1.7750    0.0000 H   0  0  0  0  0  0  0  0  0  0  0  0
    8.7976   -1.7750    0.0000 H   0  0  0  0  0  0  0  0  0  0  0  0
    8.2932   -3.9260    0.0000 H   0  0  0  0  0  0  0  0  0  0  0  0
    9.1401   -4.1530    0.0000 H   0  0  0  0  0  0  0  0  0  0  0  0
    9.3671   -3.3060    0.0000 H   0  0  0  0  0  0  0  0  0  0  0  0
    8.3671   -1.5740    0.0000 H   0  0  0  0  0  0  0  0  0  0  0  0
    7.5201   -1.3470    0.0000 H   0  0  0  0  0  0  0  0  0  0  0  0
    7.2932   -2.1940    0.0000 H   0  0  0  0  0  0  0  0  0  0  0  0
    7.4641   -3.8700    0.0000 H   0  0  0  0  0  0  0  0  0  0  0  0
   10.6182   -3.7869    0.0000 H   0  0  0  0  0  0  0  0  0  0  0  0
   11.4651   -3.5600    0.0000 H   0  0  0  0  0  0  0  0  0  0  0  0
   11.2382   -2.7131    0.0000 H   0  0  0  0  0  0  0  0  0  0  0  0
    2.5970    1.5600    0.0000 H   0  0  0  0  0  0  0  0  0  0  0  0
    5.4030    1.5600    0.0000 H   0  0  0  0  0  0  0  0  0  0  0  0
    5.4030   -0.0600    0.0000 H   0  0  0  0  0  0  0  0  0  0  0  0
    3.4631   -1.5600    0.0000 H   0  0  0  0  0  0  0  0  0  0  0  0
    3.4631   -2.9400    0.0000 H   0  0  0  0  0  0  0  0  0  0  0  0
    1.9580    0.2869    0.0000 H   0  0  0  0  0  0  0  0  0  0  0  0
    1.7310   -0.5600    0.0000 H   0  0  0  0  0  0  0  0  0  0  0  0
    2.5780   -0.7869    0.0000 H   0  0  0  0  0  0  0  0  0  0  0  0
    4.8660   -5.3700    0.0000 H   0  0  0  0  0  0  0  0  0  0  0  0
    3.4631   -4.5600    0.0000 H   0  0  0  0  0  0  0  0  0  0  0  0
  1 32  1  0  0  0  0
  2 10  2  0  0  0  0
  2 11  2  0  0  0  0
  2 17  1  0  0  0  0
  2 20  1  0  0  0  0
  3 23  1  0  0  0  0
  4 30  1  0  0  0  0
  5 30  1  0  0  0  0
  6 30  1  0  0  0  0
  7 31  1  0  0  0  0
  8 31  1  0  0  0  0
  9 31  1  0  0  0  0
 12 21  2  0  0  0  0
 13 34  2  0  0  0  0
 14 16  1  0  0  0  0
 14 21  1  0  0  0  0
 14 47  1  0  0  0  0
 15 27  1  0  0  0  0
 15 34  1  0  0  0  0
 15 54  1  0  0  0  0
 16 17  1  0  0  0  0
 16 18  1  0  0  0  0
 16 19  1  0  0  0  0
 17 39  1  0  0  0  0
 17 40  1  0  0  0  0
 18 41  1  0  0  0  0
 18 42  1  0  0  0  0
 18 43  1  0  0  0  0
 19 44  1  0  0  0  0
 19 45  1  0  0  0  0
 19 46  1  0  0  0  0
 20 48  1  0  0  0  0
 20 49  1  0  0  0  0
 20 50  1  0  0  0  0
 21 22  1  0  0  0  0
 22 25  2  0  0  0  0
 22 32  1  0  0  0  0
 23 24  1  0  0  0  0
 23 30  1  0  0  0  0
 23 31  1  0  0  0  0
 24 28  2  0  0  0  0
 24 29  1  0  0  0  0
 25 34  1  0  0  0  0
 25 35  1  0  0  0  0
 26 27  2  0  0  0  0
 26 28  1  0  0  0  0
 26 36  1  0  0  0  0
 27 33  1  0  0  0  0
 28 51  1  0  0  0  0
 29 33  2  0  0  0  0
 29 52  1  0  0  0  0
 32 37  2  0  0  0  0
 33 53  1  0  0  0  0
 35 38  2  0  0  0  0
 35 55  1  0  0  0  0
 36 56  1  0  0  0  0
 36 57  1  0  0  0  0
 36 58  1  0  0  0  0
 37 38  1  0  0  0  0
 37 59  1  0  0  0  0
 38 60  1  0  0  0  0
M  END
> <PUBCHEM_COMPOUND_CID>
11193251

> <PUBCHEM_COMPOUND_CANONICALIZED>
1

> <PUBCHEM_CACTVS_COMPLEXITY>
968

> <PUBCHEM_CACTVS_HBOND_ACCEPTOR>
11

> <PUBCHEM_CACTVS_HBOND_DONOR>
2

> <PUBCHEM_CACTVS_ROTATABLE_BOND>
7

> <PUBCHEM_CACTVS_SUBSKEYS>
AAADceB7OcBAAgAAAAAAAAAAAAAAAAAAAAAwYAAAAAAAAAABQAAAHwQwAAAADIiH2BCywILAAAqIAiVSUHDCAAAlAhAIiAEAZMgIIDLglZGEIQhglADIyYcdiMCOiAACAAASAAAQAAQAACQAAAAAAAAAAA==

> <PUBCHEM_IUPAC_OPENEYE_NAME>
N2-(1,1-dimethyl-2-methylsulfonyl-ethyl)-3-iodo-N1-[2-methyl-4-[1,2,2,2-tetrafluoro-1-(trifluoromethyl)ethyl]phenyl]phthalamide

> <PUBCHEM_IUPAC_CAS_NAME>
N1-[4-(1,1,1,2,3,3,3-heptafluoropropan-2-yl)-2-methylphenyl]-3-iodo-N2-(2-methyl-1-methylsulfonylpropan-2-yl)benzene-1,2-dicarboxamide

> <PUBCHEM_IUPAC_NAME_MARKUP>
1-<I>N</I>-[4-(1,1,1,2,3,3,3-heptafluoropropan-2-yl)-2-methylphenyl]-3-iodo-2-<I>N</I>-(2-methyl-1-methylsulfonylpropan-2-yl)benzene-1,2-dicarboxamide

> <PUBCHEM_IUPAC_NAME>
1-N-[4-(1,1,1,2,3,3,3-heptafluoropropan-2-yl)-2-methylphenyl]-3-iodo-2-N-(2-methyl-1-methylsulfonylpropan-2-yl)benzene-1,2-dicarboxamide

> <PUBCHEM_IUPAC_SYSTEMATIC_NAME>
N1-[4-[1,1,1,2,3,3,3-heptakis(fluoranyl)propan-2-yl]-2-methyl-phenyl]-3-iodanyl-N2-(2-methyl-1-methylsulfonyl-propan-2-yl)benzene-1,2-dicarboxamide

> <PUBCHEM_IUPAC_TRADITIONAL_NAME>
3-iodo-N'-(2-mesyl-1,1-dimethyl-ethyl)-N-[2-methyl-4-[1,2,2,2-tetrafluoro-1-(trifluoromethyl)ethyl]phenyl]phthalamide

> <PUBCHEM_IUPAC_INCHI>
InChI=1S/C23H22F7IN2O4S/c1-12-10-13(21(24,22(25,26)27)23(28,29)30)8-9-16(12)32-18(34)14-6-5-7-15(31)17(14)19(35)33-20(2,3)11-38(4,36)37/h5-10H,11H2,1-4H3,(H,32,34)(H,33,35)

> <PUBCHEM_IUPAC_INCHIKEY>
ZGNITFSDLCMLGI-UHFFFAOYSA-N

> <PUBCHEM_XLOGP3_AA>
5.3

> <PUBCHEM_EXACT_MASS>
682.02332

> <PUBCHEM_MOLECULAR_FORMULA>
C23H22F7IN2O4S

> <PUBCHEM_MOLECULAR_WEIGHT>
682.4

> <PUBCHEM_OPENEYE_CAN_SMILES>
CC1=C(C=CC(=C1)C(C(F)(F)F)(C(F)(F)F)F)NC(=O)C2=C(C(=CC=C2)I)C(=O)NC(C)(C)CS(=O)(=O)C

> <PUBCHEM_OPENEYE_ISO_SMILES>
CC1=C(C=CC(=C1)C(C(F)(F)F)(C(F)(F)F)F)NC(=O)C2=C(C(=CC=C2)I)C(=O)NC(C)(C)CS(=O)(=O)C

> <PUBCHEM_CACTVS_TPSA>
101

> <PUBCHEM_MONOISOTOPIC_WEIGHT>
682.02332

> <PUBCHEM_TOTAL_CHARGE>
0

> <PUBCHEM_HEAVY_ATOM_COUNT>
38

> <PUBCHEM_ATOM_DEF_STEREO_COUNT>
0

> <PUBCHEM_ATOM_UDEF_STEREO_COUNT>
0

> <PUBCHEM_BOND_DEF_STEREO_COUNT>
0

> <PUBCHEM_BOND_UDEF_STEREO_COUNT>
0

> <PUBCHEM_ISOTOPIC_ATOM_COUNT>
0

> <PUBCHEM_COMPONENT_COUNT>
1

> <PUBCHEM_CACTVS_TAUTO_COUNT>
4

> <PUBCHEM_COORDINATE_TYPE>
1
5
255

> <PUBCHEM_BONDANNOTATIONS>
22  25  8
22  32  8
24  28  8
24  29  8
25  35  8
26  27  8
26  28  8
27  33  8
29  33  8
32  37  8
35  38  8
37  38  8

$$$$
